# vtk DataFile Version 3.0
grids
ASCII
DATASET POLYDATA
POINTS 1652 float
0.000000 0.000000 0.545455
0.085714 0.000000 0.545455
0.171429 0.000000 0.545455
0.257143 0.000000 0.545455
0.342857 0.000000 0.545455
0.428571 0.000000 0.545455
0.514286 0.000000 0.545455
0.600000 0.000000 0.545455
0.685714 0.000000 0.545455
0.771429 0.000000 0.545455
0.857143 0.000000 0.545455
0.942857 0.000000 0.545455
1.028571 0.000000 0.545455
1.114286 0.000000 0.545455
1.200000 0.000000 0.545455
1.285714 0.000000 0.545455
1.371429 0.000000 0.545455
1.457143 0.000000 0.545455
1.542857 0.000000 0.545455
1.628572 0.000000 0.545455
1.714286 0.000000 0.545455
1.800000 0.000000 0.545455
1.885714 0.000000 0.545455
1.971429 0.000000 0.545455
2.057143 0.000000 0.545455
2.142857 0.000000 0.545455
2.228571 0.000000 0.545455
2.314286 0.000000 0.545455
2.400000 0.000000 0.545455
2.485714 0.000000 0.545455
2.571429 0.000000 0.545455
2.657143 0.000000 0.545455
2.742857 0.000000 0.545455
2.828572 0.000000 0.545455
2.914286 0.000000 0.545455
3.000000 0.000000 0.545455
0.000000 0.090909 0.545455
0.085714 0.090909 0.545455
0.171429 0.090909 0.545455
0.257143 0.090909 0.545455
0.342857 0.090909 0.545455
0.428571 0.090909 0.545455
0.514286 0.090909 0.545455
0.600000 0.090909 0.545455
0.685714 0.090909 0.545455
0.771429 0.090909 0.545455
0.857143 0.090909 0.545455
0.942857 0.090909 0.545455
1.028571 0.090909 0.545455
1.114286 0.090909 0.545455
1.200000 0.090909 0.545455
1.285714 0.090909 0.545455
1.371429 0.090909 0.545455
1.457143 0.090909 0.545455
1.542857 0.090909 0.545455
1.628572 0.090909 0.545455
1.714286 0.090909 0.545455
1.800000 0.090909 0.545455
1.885714 0.090909 0.545455
1.971429 0.090909 0.545455
2.057143 0.090909 0.545455
2.142857 0.090909 0.545455
2.228571 0.090909 0.545455
2.314286 0.090909 0.545455
2.400000 0.090909 0.545455
2.485714 0.090909 0.545455
2.571429 0.090909 0.545455
2.657143 0.090909 0.545455
2.742857 0.090909 0.545455
2.828572 0.090909 0.545455
2.914286 0.090909 0.545455
3.000000 0.090909 0.545455
0.000000 0.181818 0.545455
0.085714 0.181818 0.545455
0.171429 0.181818 0.545455
0.257143 0.181818 0.545455
0.342857 0.181818 0.545455
0.428571 0.181818 0.545455
0.514286 0.181818 0.545455
0.600000 0.181818 0.545455
0.685714 0.181818 0.545455
0.771429 0.181818 0.545455
0.857143 0.181818 0.545455
0.942857 0.181818 0.545455
1.028571 0.181818 0.545455
1.114286 0.181818 0.545455
1.200000 0.181818 0.545455
1.285714 0.181818 0.545455
1.371429 0.181818 0.545455
1.457143 0.181818 0.545455
1.542857 0.181818 0.545455
1.628572 0.181818 0.545455
1.714286 0.181818 0.545455
1.800000 0.181818 0.545455
1.885714 0.181818 0.545455
1.971429 0.181818 0.545455
2.057143 0.181818 0.545455
2.142857 0.181818 0.545455
2.228571 0.181818 0.545455
2.314286 0.181818 0.545455
2.400000 0.181818 0.545455
2.485714 0.181818 0.545455
2.571429 0.181818 0.545455
2.657143 0.181818 0.545455
2.742857 0.181818 0.545455
2.828572 0.181818 0.545455
2.914286 0.181818 0.545455
3.000000 0.181818 0.545455
0.000000 0.272727 0.545455
0.085714 0.272727 0.545455
0.171429 0.272727 0.545455
0.257143 0.272727 0.545455
0.342857 0.272727 0.545455
0.428571 0.272727 0.545455
0.514286 0.272727 0.545455
0.600000 0.272727 0.545455
0.685714 0.272727 0.545455
0.771429 0.272727 0.545455
0.857143 0.272727 0.545455
0.942857 0.272727 0.545455
1.028571 0.272727 0.545455
1.114286 0.272727 0.545455
1.200000 0.272727 0.545455
1.285714 0.272727 0.545455
1.371429 0.272727 0.545455
1.457143 0.272727 0.545455
1.542857 0.272727 0.545455
1.628572 0.272727 0.545455
1.714286 0.272727 0.545455
1.800000 0.272727 0.545455
1.885714 0.272727 0.545455
1.971429 0.272727 0.545455
2.057143 0.272727 0.545455
2.142857 0.272727 0.545455
2.228571 0.272727 0.545455
2.314286 0.272727 0.545455
2.400000 0.272727 0.545455
2.485714 0.272727 0.545455
2.571429 0.272727 0.545455
2.657143 0.272727 0.545455
2.742857 0.272727 0.545455
2.828572 0.272727 0.545455
2.914286 0.272727 0.545455
3.000000 0.272727 0.545455
0.000000 0.363636 0.545455
0.085714 0.363636 0.545455
0.171429 0.363636 0.545455
0.257143 0.363636 0.545455
0.342857 0.363636 0.545455
0.428571 0.363636 0.545455
0.514286 0.363636 0.545455
0.600000 0.363636 0.545455
0.685714 0.363636 0.545455
0.771429 0.363636 0.545455
0.857143 0.363636 0.545455
0.942857 0.363636 0.545455
1.028571 0.363636 0.545455
1.114286 0.363636 0.545455
1.200000 0.363636 0.545455
1.285714 0.363636 0.545455
1.371429 0.363636 0.545455
1.457143 0.363636 0.545455
1.542857 0.363636 0.545455
1.628572 0.363636 0.545455
1.714286 0.363636 0.545455
1.800000 0.363636 0.545455
1.885714 0.363636 0.545455
1.971429 0.363636 0.545455
2.057143 0.363636 0.545455
2.142857 0.363636 0.545455
2.228571 0.363636 0.545455
2.314286 0.363636 0.545455
2.400000 0.363636 0.545455
2.485714 0.363636 0.545455
2.571429 0.363636 0.545455
2.657143 0.363636 0.545455
2.742857 0.363636 0.545455
2.828572 0.363636 0.545455
2.914286 0.363636 0.545455
3.000000 0.363636 0.545455
0.000000 0.454545 0.545455
0.085714 0.454545 0.545455
0.171429 0.454545 0.545455
0.257143 0.454545 0.545455
0.342857 0.454545 0.545455
0.428571 0.454545 0.545455
0.514286 0.454545 0.545455
0.600000 0.454545 0.545455
0.685714 0.454545 0.545455
0.771429 0.454545 0.545455
0.857143 0.454545 0.545455
0.942857 0.454545 0.545455
1.028571 0.454545 0.545455
1.114286 0.454545 0.545455
1.200000 0.454545 0.545455
1.285714 0.454545 0.545455
1.371429 0.454545 0.545455
1.457143 0.454545 0.545455
1.542857 0.454545 0.545455
1.628572 0.454545 0.545455
1.714286 0.454545 0.545455
1.800000 0.454545 0.545455
1.885714 0.454545 0.545455
1.971429 0.454545 0.545455
2.057143 0.454545 0.545455
2.142857 0.454545 0.545455
2.228571 0.454545 0.545455
2.314286 0.454545 0.545455
2.400000 0.454545 0.545455
2.485714 0.454545 0.545455
2.571429 0.454545 0.545455
2.657143 0.454545 0.545455
2.742857 0.454545 0.545455
2.828572 0.454545 0.545455
2.914286 0.454545 0.545455
3.000000 0.454545 0.545455
0.000000 0.545455 0.545455
0.085714 0.545455 0.545455
0.171429 0.545455 0.545455
0.257143 0.545455 0.545455
0.342857 0.545455 0.545455
0.428571 0.545455 0.545455
0.514286 0.545455 0.545455
0.600000 0.545455 0.545455
0.685714 0.545455 0.545455
0.771429 0.545455 0.545455
0.857143 0.545455 0.545455
0.942857 0.545455 0.545455
1.028571 0.545455 0.545455
1.114286 0.545455 0.545455
1.200000 0.545455 0.545455
1.285714 0.545455 0.545455
1.371429 0.545455 0.545455
1.457143 0.545455 0.545455
1.542857 0.545455 0.545455
1.628572 0.545455 0.545455
1.714286 0.545455 0.545455
1.800000 0.545455 0.545455
1.885714 0.545455 0.545455
1.971429 0.545455 0.545455
2.057143 0.545455 0.545455
2.142857 0.545455 0.545455
2.228571 0.545455 0.545455
2.314286 0.545455 0.545455
2.400000 0.545455 0.545455
2.485714 0.545455 0.545455
2.571429 0.545455 0.545455
2.657143 0.545455 0.545455
2.742857 0.545455 0.545455
2.828572 0.545455 0.545455
2.914286 0.545455 0.545455
3.000000 0.545455 0.545455
0.000000 0.000000 0.636364
0.085714 0.000000 0.636364
0.171429 0.000000 0.636364
0.257143 0.000000 0.636364
0.342857 0.000000 0.636364
0.428571 0.000000 0.636364
0.514286 0.000000 0.636364
0.600000 0.000000 0.636364
0.685714 0.000000 0.636364
0.771429 0.000000 0.636364
0.857143 0.000000 0.636364
0.942857 0.000000 0.636364
1.028571 0.000000 0.636364
1.114286 0.000000 0.636364
1.200000 0.000000 0.636364
1.285714 0.000000 0.636364
1.371429 0.000000 0.636364
1.457143 0.000000 0.636364
1.542857 0.000000 0.636364
1.628572 0.000000 0.636364
1.714286 0.000000 0.636364
1.800000 0.000000 0.636364
1.885714 0.000000 0.636364
1.971429 0.000000 0.636364
2.057143 0.000000 0.636364
2.142857 0.000000 0.636364
2.228571 0.000000 0.636364
2.314286 0.000000 0.636364
2.400000 0.000000 0.636364
2.485714 0.000000 0.636364
2.571429 0.000000 0.636364
2.657143 0.000000 0.636364
2.742857 0.000000 0.636364
2.828572 0.000000 0.636364
2.914286 0.000000 0.636364
3.000000 0.000000 0.636364
0.000000 0.090909 0.636364
0.085714 0.090909 0.636364
0.171429 0.090909 0.636364
0.257143 0.090909 0.636364
0.342857 0.090909 0.636364
0.428571 0.090909 0.636364
0.514286 0.090909 0.636364
0.600000 0.090909 0.636364
0.685714 0.090909 0.636364
0.771429 0.090909 0.636364
0.857143 0.090909 0.636364
0.942857 0.090909 0.636364
1.028571 0.090909 0.636364
1.114286 0.090909 0.636364
1.200000 0.090909 0.636364
1.285714 0.090909 0.636364
1.371429 0.090909 0.636364
1.457143 0.090909 0.636364
1.542857 0.090909 0.636364
1.628572 0.090909 0.636364
1.714286 0.090909 0.636364
1.800000 0.090909 0.636364
1.885714 0.090909 0.636364
1.971429 0.090909 0.636364
2.057143 0.090909 0.636364
2.142857 0.090909 0.636364
2.228571 0.090909 0.636364
2.314286 0.090909 0.636364
2.400000 0.090909 0.636364
2.485714 0.090909 0.636364
2.571429 0.090909 0.636364
2.657143 0.090909 0.636364
2.742857 0.090909 0.636364
2.828572 0.090909 0.636364
2.914286 0.090909 0.636364
3.000000 0.090909 0.636364
0.000000 0.181818 0.636364
0.085714 0.181818 0.636364
0.171429 0.181818 0.636364
0.257143 0.181818 0.636364
0.342857 0.181818 0.636364
0.428571 0.181818 0.636364
0.514286 0.181818 0.636364
0.600000 0.181818 0.636364
0.685714 0.181818 0.636364
0.771429 0.181818 0.636364
0.857143 0.181818 0.636364
0.942857 0.181818 0.636364
1.028571 0.181818 0.636364
1.114286 0.181818 0.636364
1.200000 0.181818 0.636364
1.285714 0.181818 0.636364
1.371429 0.181818 0.636364
1.457143 0.181818 0.636364
1.542857 0.181818 0.636364
1.628572 0.181818 0.636364
1.714286 0.181818 0.636364
1.800000 0.181818 0.636364
1.885714 0.181818 0.636364
1.971429 0.181818 0.636364
2.057143 0.181818 0.636364
2.142857 0.181818 0.636364
2.228571 0.181818 0.636364
2.314286 0.181818 0.636364
2.400000 0.181818 0.636364
2.485714 0.181818 0.636364
2.571429 0.181818 0.636364
2.657143 0.181818 0.636364
2.742857 0.181818 0.636364
2.828572 0.181818 0.636364
2.914286 0.181818 0.636364
3.000000 0.181818 0.636364
0.000000 0.272727 0.636364
0.085714 0.272727 0.636364
0.171429 0.272727 0.636364
0.257143 0.272727 0.636364
0.342857 0.272727 0.636364
0.428571 0.272727 0.636364
0.514286 0.272727 0.636364
[...]
POINT_DATA 1652
VECTORS attr0 float
0.000000 0.000000 -0.000000 
0.000000 0.000000 -0.000000 
0.000000 0.000000 -0.000000 
0.000000 0.000000 -0.000000 
0.000000 0.000000 -0.000000 
0.000000 0.000000 -0.000000 
0.000000 0.000000 -0.000000 
0.000000 0.000000 0.000000 
0.000000 0.000000 0.000000 
-0.000000 0.000000 0.000000 
-0.000000 0.000000 0.000000 
-0.000000 0.000000 0.000000 
-0.000000 0.000000 0.000000 
-0.000000 0.000000 0.000001 
-0.000000 0.000000 0.000001 
-0.000000 0.000000 0.000001 
-0.000000 0.000000 0.000001 
-0.000000 0.000000 0.000001 
-0.000000 0.000000 0.000001 
-0.000000 0.000000 0.000001 
0.000000 0.000000 0.000001 
0.000000 0.000000 0.000001 
0.000001 0.000000 0.000000 
0.000001 0.000000 -0.000001 
0.000001 0.000000 -0.000002 
0.000001 0.000000 -0.000003 
0.000001 0.000000 -0.000004 
0.000001 0.000000 -0.000004 
-0.000000 0.000000 -0.000002 
-0.000001 0.000000 0.000002 
-0.000003 0.000000 0.000006 
-0.000004 0.000000 0.000007 
-0.000004 0.000000 0.000001 
-0.000004 0.000000 -0.000009 
-0.000003 0.000000 -0.000007 
0.000000 0.999998 -0.000006 
0.000000 -0.000000 -0.000000 
-0.000000 0.000000 0.000002 
-0.000001 0.000001 0.000004 
-0.000002 0.000002 0.000006 
-0.000005 0.000003 0.000009 
-0.000008 0.000004 0.000012 
-0.000013 0.000005 0.000017 
-0.000021 0.000007 0.000024 
-0.000030 0.000010 0.000032 
-0.000043 0.000013 0.000041 
-0.000060 0.000016 0.000051 
-0.000080 0.000018 0.000059 
-0.000103 0.000019 0.000060 
-0.000126 0.000016 0.000047 
-0.000142 0.000005 0.000007 
-0.000139 -0.000021 -0.000082 
-0.000097 -0.000071 -0.000255 
0.000019 -0.000162 -0.000562 
0.000269 -0.000317 -0.001083 
0.000739 -0.000571 -0.001930 
0.001568 -0.000972 -0.003263 
0.002958 -0.001589 -0.005301 
0.005199 -0.002513 -0.008335 
0.008704 -0.003863 -0.012730 
0.014037 -0.005792 -0.018915 
0.021948 -0.008484 -0.027343 
0.033403 -0.012159 -0.038373 
0.049603 -0.017073 -0.052039 
0.071956 -0.023530 -0.067600 
0.101961 -0.031890 -0.082711 
0.140829 -0.042465 -0.091980 
0.188329 -0.054743 -0.084484 
0.239467 -0.063310 -0.039454 
0.275386 -0.039772 0.082401 
0.240951 0.141727 0.361827 
0.000000 0.999998 1.000005 
0.000000 -0.000000 -0.000000 
-0.000001 0.000002 0.000004 
-0.000002 0.000003 0.000007 
-0.000004 0.000006 0.000010 
-0.000008 0.000008 0.000015 
-0.000013 0.000012 0.000021 
-0.000021 0.000016 0.000030 
-0.000031 0.000022 0.000040 
-0.000045 0.000029 0.000053 
-0.000062 0.000037 0.000067 
-0.000084 0.000044 0.000080 
-0.000108 0.000048 0.000087 
-0.000133 0.000044 0.000079 
-0.000152 0.000023 0.000042 
-0.000152 -0.000028 -0.000050 
-0.000113 -0.000131 -0.000237 
0.000001 -0.000321 -0.000581 
0.000250 -0.000649 -0.001176 
0.000724 -0.001193 -0.002160 
0.001566 -0.002061 -0.003731 
0.002983 -0.003406 -0.006164 
0.005278 -0.005435 -0.009829 
0.008877 -0.008420 -0.015207 
0.014363 -0.012700 -0.022885 
0.022503 -0.018680 -0.033527 
0.034271 -0.026807 -0.047775 
0.050820 -0.037512 -0.066035 
0.073395 -0.051094 -0.088050 
0.103083 -0.067493 -0.112124 
0.140262 -0.085812 -0.133792 
0.183462 -0.103185 -0.143695 
0.227080 -0.111897 -0.124491 
0.257295 -0.091866 -0.047081 
0.246722 0.007691 0.132256 
0.157172 0.304091 0.468532 
0.000000 0.999997 1.000008 
0.000000 -0.000000 -0.000000 
-0.000001 0.000003 0.000005 
-0.000002 0.000007 0.000009 
-0.000005 0.000010 0.000014 
-0.000008 0.000015 0.000020 
-0.000013 0.000021 0.000028 
-0.000020 0.000029 0.000038 
-0.000030 0.000039 0.000051 
-0.000042 0.000050 0.000066 
-0.000057 0.000062 0.000082 
-0.000076 0.000072 0.000094 
-0.000095 0.000074 0.000097 
-0.000112 0.000058 0.000077 
-0.000119 0.000010 0.000014 
-0.000104 -0.000098 -0.000127 
-0.000042 -0.000306 -0.000399 
0.000102 -0.000679 -0.000887 
0.000389 -0.001312 -0.001715 
0.000911 -0.002342 -0.003062 
0.001806 -0.003964 -0.005186 
0.003276 -0.006450 -0.008439 
0.005608 -0.010156 -0.013287 
0.009199 -0.015543 -0.020326 
0.014576 -0.023168 -0.030266 
0.022413 -0.033658 -0.043880 
0.033514 -0.047629 -0.061861 
0.048750 -0.065513 -0.084527 
0.068882 -0.087231 -0.111267 
0.094199 -0.111593 -0.139580 
0.123837 -0.135220 -0.163523 
0.154616 -0.150589 -0.171432 
0.179350 -0.142537 -0.143103 
0.185184 -0.082314 -0.047529 
0.154770 0.080487 0.155574 
0.079082 0.420399 0.503731 
0.000000 0.999997 0.999999 
0.000000 -0.000000 -0.000000 
-0.000000 0.000005 0.000005 
-0.000001 0.000009 0.000010 
-0.000003 0.000014 0.000016 
-0.000005 0.000021 0.000023 
-0.000008 0.000029 0.000032 
-0.000013 0.000040 0.000043 
-0.000018 0.000053 0.000057 
-0.000025 0.000067 0.000073 
-0.000034 0.000082 0.000089 
-0.000044 0.000092 0.000100 
-0.000055 0.000090 0.000098 
-0.000062 0.000062 0.000068 
-0.000062 -0.000015 -0.000015 
-0.000046 -0.000178 -0.000193 
0.000001 -0.000485 -0.000528 
0.000104 -0.001027 -0.001118 
0.000300 -0.001934 -0.002106 
0.000647 -0.003398 -0.003700 
0.001231 -0.005687 -0.006192 
0.002176 -0.009165 -0.009981 
0.003658 -0.014315 -0.015589 
0.005913 -0.021742 -0.023673 
0.009251 -0.032162 -0.035006 
0.014057 -0.046341 -0.050402 
0.020766 -0.064951 -0.070547 
0.029808 -0.088273 -0.095654 
0.041467 -0.115671 -0.124836 
0.055618 -0.144670 -0.155064 
0.071287 -0.169492 -0.179542 
0.086019 -0.178857 -0.185484 
0.095205 -0.153081 -0.151657 
0.092072 -0.061245 -0.047112 
0.070100 0.138654 0.165484 
0.031042 0.489161 0.516220 
0.000000 0.999997 0.999996 
0.000000 -0.000000 -0.000000 
-0.000000 0.000006 0.000006 
-0.000000 0.000011 0.000011 
-0.000000 0.000017 0.000017 
-0.000000 0.000024 0.000024 
-0.000000 0.000034 0.000034 
-0.000000 0.000046 0.000046 
-0.000000 0.000060 0.000060 
-0.000000 0.000077 0.000077 
-0.000000 0.000092 0.000092 
-0.000000 0.000102 0.000102 
-0.000000 0.000097 0.000097 
-0.000000 0.000061 0.000061 
-0.000000 -0.000034 -0.000034 
-0.000000 -0.000232 -0.000232 
-0.000000 -0.000600 -0.000600 
-0.000000 -0.001243 -0.001243 
-0.000000 -0.002315 -0.002315 
-0.000000 -0.004036 -0.004036 
-0.000000 -0.006716 -0.006716 
-0.000000 -0.010773 -0.010773 
-0.000000 -0.016757 -0.016757 
-0.000000 -0.025352 -0.025352 
0.000000 -0.037355 -0.037355 
0.000000 -0.053594 -0.053594 
0.000000 -0.074739 -0.074739 
0.000000 -0.100940 -0.100940 
0.000000 -0.131168 -0.131168 
0.000000 -0.162141 -0.162141 
-0.000000 -0.186695 -0.186695 
-0.000000 -0.191619 -0.191619 
-0.000000 -0.155393 -0.155393 
-0.000000 -0.047335 -0.047335 
-0.000000 0.168554 0.168554 
-0.000000 0.519934 0.519934 
0.000000 0.999997 0.999997 
0.000000 -0.000000 -0.000000 
0.000001 0.000006 0.000006 
0.000002 0.000011 0.000011 
0.000003 0.000017 0.000017 
0.000006 0.000024 0.000024 
0.000009 0.000034 0.000034 
0.000014 0.000046 0.000046 
0.000020 0.000060 0.000060 
0.000028 0.000077 0.000077 
0.000038 0.000092 0.000092 
0.000048 0.000102 0.000102 
0.000058 0.000097 0.000097 
0.000065 0.000060 0.000060 
0.000062 -0.000036 -0.000036 
0.000039 -0.000236 -0.000236 
-0.000021 -0.000607 -0.000607 
-0.000145 -0.001254 -0.001254 
-0.000378 -0.002332 -0.002332 
-0.000784 -0.004061 -0.004061 
-0.001460 -0.006752 -0.006752 
-0.002546 -0.010826 -0.010826 
-0.004234 -0.016832 -0.016832 
-0.006785 -0.025456 -0.025456 
-0.010535 -0.037495 -0.037495 
-0.015889 -0.053779 -0.053779 
-0.023295 -0.074980 -0.074980 
-0.033156 -0.101248 -0.101248 
-0.045658 -0.131555 -0.131555 
-0.060460 -0.162623 -0.162623 
-0.076203 -0.187298 -0.187298 
-0.089888 -0.192379 -0.192379 
-0.096443 -0.156355 -0.156355 
-0.089349 -0.048521 -0.048521 
-0.064053 0.167229 0.167229 
-0.025911 0.518839 0.518839 
0.000000 0.999997 0.999997 
0.000000 0.000000 -0.000000 
0.000000 0.000000 -0.000000 
0.000000 0.000000 -0.000000 
0.000000 0.000000 -0.000000 
0.000000 0.000000 -0.000000 
0.000000 0.000000 -0.000000 
0.000000 0.000000 -0.000000 
-0.000000 0.000000 0.000000 
-0.000000 0.000000 0.000000 
-0.000000 0.000000 0.000000 
-0.000000 0.000000 0.000000 
-0.000000 0.000000 0.000000 
-0.000000 0.000000 0.000001 
-0.000000 0.000000 0.000001 
-0.000000 0.000000 0.000001 
-0.000000 0.000000 0.000001 
-0.000000 0.000000 0.000001 
-0.000000 0.000000 0.000001 
-0.000000 0.000000 0.000001 
0.000000 0.000000 0.000001 
0.000000 0.000000 0.000001 
0.000001 0.000000 0.000001 
0.000001 0.000000 -0.000000 
0.000001 0.000000 -0.000001 
0.000001 0.000000 -0.000002 
0.000001 0.000000 -0.000003 
0.000001 0.000000 -0.000003 
0.000000 0.000000 -0.000003 
-0.000001 0.000000 -0.000001 
-0.000002 0.000000 0.000003 
-0.000003 0.000000 0.000007 
-0.000003 0.000000 0.000007 
-0.000002 0.000000 -0.000000 
-0.000001 0.000000 -0.000011 
-0.000000 0.000000 -0.000008 
0.000000 0.999998 -0.000006 
0.000000 -0.000000 -0.000000 
-0.000000 0.000000 0.000002 
-0.000000 0.000001 0.000003 
-0.000001 0.000002 0.000005 
-0.000003 0.000002 0.000007 
-0.000005 0.000003 0.000010 
-0.000008 0.000005 0.000014 
-0.000012 0.000007 0.000020 
-0.000018 0.000009 0.000027 
-0.000027 0.000012 0.000036 
-0.000038 0.000016 0.000046 
-0.000052 0.000019 0.000055 
-0.000070 0.000021 0.000060 
-0.000090 0.000019 0.000055 
-0.000109 0.000011 0.000031 
-0.000121 -0.000009 -0.000029 
-0.000117 -0.000051 -0.000153 
-0.000077 -0.000129 -0.000382 
0.000030 -0.000264 -0.000779 
0.000254 -0.000487 -0.001437 
0.000676 -0.000846 -0.002489 
0.001415 -0.001402 -0.004120 
0.002651 -0.002244 -0.006579 
0.004642 -0.003485 -0.010187 
0.007758 -0.005274 -0.015334 
0.012519 -0.007795 -0.022454 
0.019643 -0.011270 -0.031948 
0.030123 -0.015968 -0.044007 
0.045321 -0.022213 -0.058251 
0.067078 -0.030391 -0.073005 
0.097686 -0.040834 -0.083899 
0.139200 -0.053003 -0.081159 
0.190365 -0.061348 -0.044336 
0.236548 -0.037228 0.068462 
0.222929 0.144966 0.345913 
0.000000 0.999999 1.000004 
0.000000 -0.000000 -0.000000 
-0.000000 0.000001 0.000003 
-0.000001 0.000003 0.000006 
-0.000002 0.000005 0.000009 
-0.000004 0.000008 0.000013 
-0.000007 0.000011 0.000018 
-0.000011 0.000015 0.000025 
-0.000017 0.000021 0.000035 
-0.000025 0.000028 0.000046 
-0.000036 0.000036 0.000059 
-0.000049 0.000043 0.000072 
-0.000065 0.000049 0.000081 
-0.000082 0.000048 0.000080 
-0.000099 0.000033 0.000056 
-0.000108 -0.000008 -0.000010 
-0.000101 -0.000095 -0.000151 
-0.000057 -0.000259 -0.000418 
0.000052 -0.000548 -0.000889 
0.000276 -0.001031 -0.001678 
0.000690 -0.001810 -0.002953 
0.001409 -0.003027 -0.004947 
0.002600 -0.004877 -0.007977 
0.004508 -0.007618 -0.012462 
0.007469 -0.011577 -0.018922 
0.011948 -0.017148 -0.027965 
0.018558 -0.024778 -0.040215 
0.028086 -0.034912 -0.056152 
0.041497 -0.047891 -0.075777 
0.059886 -0.063730 -0.097963 
0.084280 -0.081640 -0.119273 
0.115037 -0.098874 -0.131857 
0.150197 -0.107773 -0.119954 
0.181608 -0.088122 -0.054651 
0.187855 0.011216 0.111985 
0.130361 0.307484 0.446412 
0.000000 0.999998 1.000008 
0.000000 -0.000000 -0.000000 
-0.000000 0.000003 0.000004 
-0.000001 0.000006 0.000007 
-0.000002 0.000010 0.000012 
-0.000003 0.000014 0.000017 
-0.000006 0.000020 0.000024 
-0.000009 0.000027 0.000033 
-0.000013 0.000037 0.000044 
-0.000018 0.000048 0.000058 
-0.000025 0.000060 0.000072 
-0.000034 0.000071 0.000085 
-0.000044 0.000075 0.000091 
-0.000053 0.000065 0.000079 
-0.000059 0.000026 0.000033 
-0.000058 -0.000065 -0.000076 
-0.000039 -0.000247 -0.000294 
0.000013 -0.000578 -0.000688 
0.000121 -0.001144 -0.001366 
0.000325 -0.002074 -0.002479 
0.000683 -0.003550 -0.004246 
0.001281 -0.005825 -0.006971 
0.002243 -0.009237 -0.011058 
0.003745 -0.014226 -0.017030 
0.006023 -0.021327 -0.025520 
0.009387 -0.031155 -0.037239 
0.014226 -0.044328 -0.052867 
0.020994 -0.061311 -0.072825 
0.030163 -0.082107 -0.096825 
0.042104 -0.105673 -0.123061 
0.056820 -0.128844 -0.146809 
0.073402 -0.144351 -0.158149 
0.089007 -0.137200 -0.138617 
0.097293 -0.078522 -0.057198 
0.087379 0.082707 0.131519 
0.048966 0.421762 0.478165 
0.000000 0.999997 1.000000 
0.000000 -0.000000 -0.000000 
-0.000000 0.000004 0.000004 
-0.000000 0.000009 0.000009 
-0.000000 0.000013 0.000013 
-0.000000 0.000019 0.000019 
-0.000000 0.000027 0.000027 
-0.000000 0.000038 0.000038 
-0.000000 0.000050 0.000050 
-0.000000 0.000064 0.000064 
-0.000000 0.000079 0.000079 
-0.000000 0.000091 0.000091 
-0.000000 0.000092 0.000092 
-0.000000 0.000070 0.000070 
-0.000000 0.000005 0.000005 
-0.000000 -0.000138 -0.000138 
-0.000000 -0.000413 -0.000413 
-0.000000 -0.000901 -0.000901 
-0.000000 -0.001727 -0.001727 
-0.000000 -0.003067 -0.003067 
-0.000000 -0.005173 -0.005173 
-0.000000 -0.008391 -0.008391 
-0.000000 -0.013176 -0.013176 
-0.000000 -0.020108 -0.020108 
0.000000 -0.029880 -0.029880 
0.000000 -0.043243 -0.043243 
0.000000 -0.060877 -0.060877 
0.000000 -0.083117 -0.083117 
0.000000 -0.109444 -0.109444 
0.000000 -0.137597 -0.137597 
0.000000 -0.162107 -0.162107 
-0.000000 -0.172057 -0.172057 
-0.000000 -0.148013 -0.148013 
-0.000000 -0.058874 -0.058874 
-0.000000 0.138358 0.138358 
-0.000000 0.487901 0.487901 
0.000000 0.999996 0.999996 
0.000000 -0.000000 -0.000000 
0.000000 0.000005 0.000005 
0.000001 0.000010 0.000009 
0.000003 0.000016 0.000014 
0.000005 0.000023 0.000021 
0.000008 0.000032 0.000029 
0.000013 0.000043 0.000040 
0.000018 0.000057 0.000053 
0.000025 0.000073 0.000067 
0.000034 0.000089 0.000082 
0.000044 0.000100 0.000092 
0.000055 0.000098 0.000090 
0.000062 0.000068 0.000062 
0.000062 -0.000015 -0.000015 
0.000046 -0.000193 -0.000178 
-0.000001 -0.000528 -0.000485 
-0.000104 -0.001118 -0.001027 
-0.000300 -0.002106 -0.001934 
-0.000647 -0.003700 -0.003398 
-0.001231 -0.006192 -0.005687 
-0.002176 -0.009981 -0.009165 
-0.003658 -0.015589 -0.014315 
-0.005913 -0.023673 -0.021742 
-0.009251 -0.035006 -0.032162 
-0.014057 -0.050402 -0.046341 
-0.020766 -0.070547 -0.064951 
-0.029808 -0.095654 -0.088273 
-0.041467 -0.124836 -0.115671 
-0.055618 -0.155064 -0.144670 
-0.071287 -0.179542 -0.169492 
-0.086019 -0.185484 -0.178857 
-0.095205 -0.151657 -0.153081 
-0.092072 -0.047112 -0.061245 
-0.070100 0.165484 0.138654 
-0.031042 0.516220 0.489161 
0.000000 0.999996 0.999997 
0.000000 -0.000000 -0.000000 
0.000001 0.000005 0.000005 
0.000003 0.000010 0.000009 
0.000006 0.000016 0.000014 
0.000011 0.000023 0.000021 
0.000017 0.000032 0.000029 
0.000026 0.000044 0.000040 
0.000038 0.000058 0.000053 
0.000052 0.000074 0.000067 
0.000070 0.000089 0.000082 
0.000090 0.000100 0.000091 
0.000110 0.000097 0.000088 
0.000124 0.000064 0.000059 
0.000122 -0.000022 -0.000020 
0.000084 -0.000205 -0.000188 
-0.000020 -0.000547 -0.000502 
-0.000241 -0.001149 -0.001054 
-0.000659 -0.002154 -0.001977 
-0.001394 -0.003774 -0.003462 
-0.002624 -0.006302 -0.005781 
-0.004607 -0.010140 -0.009302 
-0.007703 -0.015814 -0.014509 
-0.012400 -0.023986 -0.022011 
-0.019332 -0.035430 -0.032527 
-0.029273 -0.050966 -0.046827 
-0.043097 -0.071280 -0.065583 
-0.061628 -0.096588 -0.089081 
-0.085348 -0.126007 -0.116688 
-0.113825 -0.156516 -0.145943 
-0.144805 -0.181339 -0.171090 
-0.172962 -0.187721 -0.180886 
-0.188777 -0.154450 -0.155679 
-0.179086 -0.050522 -0.064511 
-0.132766 0.161695 0.134912 
-0.056551 0.513088 0.485967 
0.000000 0.999996 0.999997 
0.000000 0.000000 -0.000000 
0.000000 0.000000 -0.000000 
0.000000 0.000000 -0.000000 
0.000000 0.000000 -0.000000 
0.000000 0.000000 -0.000000 
0.000000 0.000000 -0.000000 
-0.000000 0.000000 0.000000 
-0.000000 0.000000 0.000000 
-0.000000 0.000000 0.000000 
-0.000000 0.000000 0.000000 
-0.000000 0.000000 0.000000 
-0.000000 0.000000 0.000000 
-0.000000 0.000000 0.000001 
-0.000000 0.000000 0.000001 
-0.000000 0.000000 0.000001 
-0.000000 0.000000 0.000001 
-0.000000 0.000000 0.000001 
-0.000000 0.000000 0.000001 
0.000000 0.000000 0.000001 
0.000000 0.000000 0.000001 
0.000000 0.000000 0.000001 
0.000001 0.000000 0.000000 
0.000001 0.000000 -0.000000 
0.000001 0.000000 -0.000001 
0.000001 0.000000 -0.000002 
0.000001 0.000000 -0.000003 
0.000000 0.000000 -0.000003 
-0.000000 0.000000 -0.000002 
-0.000001 0.000000 0.000000 
-0.000002 0.000000 0.000004 
-0.000003 0.000000 0.000007 
-0.000002 0.000000 0.000006 
0.000000 0.000000 -0.000002 
0.000002 0.000000 -0.000013 
0.000003 0.000000 -0.000009 
0.000000 0.999998 -0.000002 
0.000000 -0.000000 -0.000000 
0.000000 0.000000 0.000001 
-0.000000 0.000001 0.000002 
-0.000000 0.000001 0.000003 
-0.000001 0.000002 0.000005 
-0.000002 0.000003 0.000007 
-0.000003 0.000004 0.000010 
-0.000005 0.000006 0.000014 
-0.000008 0.000008 0.000019 
-0.000013 0.000011 0.000026 
-0.000019 0.000015 0.000035 
-0.000027 0.000018 0.000044 
-0.000038 0.000021 0.000052 
-0.000051 0.000023 0.000056 
-0.000067 0.000019 0.000049 
-0.000083 0.000007 0.000022 
-0.000096 -0.000021 -0.000042 
-0.000100 -0.000076 -0.000170 
-0.000082 -0.000177 -0.000404 
-0.000022 -0.000348 -0.000806 
0.000116 -0.000630 -0.001467 
0.000384 -0.001078 -0.002518 
0.000868 -0.001767 -0.004139 
0.001695 -0.002802 -0.006570 
0.003057 -0.004320 -0.010122 
0.005240 -0.006499 -0.015170 
0.008677 -0.009565 -0.022131 
0.014031 -0.013809 -0.031382 
0.022344 -0.019601 -0.043064 
0.035273 -0.027417 -0.056609 
0.055386 -0.037720 -0.069599 
0.086150 -0.050111 -0.075009 
0.130065 -0.059061 -0.054580 
0.179883 -0.035546 0.036648 
0.189404 0.146859 0.305228 
0.000000 1.000003 1.000005 
0.000000 -0.000000 -0.000000 
-0.000000 0.000001 0.000002 
-0.000000 0.000003 0.000004 
-0.000001 0.000004 0.000006 
-0.000001 0.000006 0.000009 
-0.000002 0.000009 0.000013 
-0.000004 0.000013 0.000018 
-0.000006 0.000018 0.000025 
-0.000009 0.000025 0.000034 
-0.000014 0.000032 0.000044 
-0.000019 0.000041 0.000056 
-0.000026 0.000048 0.000066 
-0.000035 0.000051 0.000071 
-0.000044 0.000044 0.000063 
-0.000053 0.000018 0.000029 
-0.000058 -0.000043 -0.000053 
-0.000054 -0.000165 -0.000216 
-0.000030 -0.000386 -0.000514 
0.000029 -0.000766 -0.001026 
0.000150 -0.001390 -0.001870 
0.000373 -0.002381 -0.003211 
0.000761 -0.003909 -0.005280 
0.001406 -0.006202 -0.008389 
0.002438 -0.009558 -0.012935 
0.004050 -0.014348 -0.019407 
0.006505 -0.021004 -0.028358 
0.010178 -0.029994 -0.040323 
0.015584 -0.041736 -0.055637 
0.023431 -0.056416 -0.074040 
0.034648 -0.073541 -0.093832 
0.050263 -0.090800 -0.110091 
0.070717 -0.101020 -0.110900 
0.093539 -0.084194 -0.069847 
0.107521 0.011651 0.066675 
0.084507 0.306303 0.390977 
0.000000 1.000003 1.000009 
0.000000 -0.000000 -0.000000 
-0.000000 0.000003 0.000003 
-0.000000 0.000005 0.000005 
-0.000000 0.000008 0.000008 
-0.000000 0.000012 0.000012 
-0.000000 0.000017 0.000017 
-0.000000 0.000024 0.000024 
-0.000000 0.000032 0.000032 
-0.000000 0.000043 0.000043 
-0.000000 0.000055 0.000055 
-0.000000 0.000066 0.000066 
-0.000000 0.000074 0.000074 
-0.000000 0.000071 0.000071 
-0.000000 0.000047 0.000047 
-0.000000 -0.000019 -0.000019 
-0.000000 -0.000156 -0.000156 
-0.000000 -0.000414 -0.000414 
-0.000000 -0.000867 -0.000867 
-0.000000 -0.001622 -0.001622 
-0.000000 -0.002836 -0.002836 
-0.000000 -0.004730 -0.004730 
-0.000000 -0.007602 -0.007602 
-0.000000 -0.011844 -0.011844 
0.000000 -0.017946 -0.017946 
0.000000 -0.026486 -0.026486 
0.000000 -0.038073 -0.038073 
0.000000 -0.053226 -0.053226 
0.000000 -0.072104 -0.072104 
0.000000 -0.093986 -0.093986 
-0.000000 -0.116250 -0.116250 
-0.000000 -0.132387 -0.132387 
-0.000000 -0.128201 -0.128201 
-0.000000 -0.075050 -0.075050 
-0.000000 0.079688 0.079688 
-0.000000 0.415989 0.415989 
0.000000 1.000001 1.000001 
0.000000 -0.000000 -0.000000 
0.000000 0.000004 0.000003 
0.000001 0.000007 0.000006 
0.000002 0.000012 0.000010 
0.000003 0.000017 0.000014 
0.000006 0.000024 0.000020 
0.000009 0.000033 0.000027 
0.000013 0.000044 0.000037 
0.000018 0.000058 0.000048 
0.000025 0.000072 0.000060 
0.000034 0.000085 0.000071 
0.000044 0.000091 0.000075 
0.000053 0.000079 0.000065 
0.000059 0.000033 0.000026 
0.000058 -0.000076 -0.000065 
0.000039 -0.000294 -0.000247 
-0.000013 -0.000688 -0.000578 
-0.000121 -0.001366 -0.001144 
-0.000325 -0.002479 -0.002074 
-0.000683 -0.004246 -0.003550 
-0.001281 -0.006971 -0.005825 
-0.002243 -0.011058 -0.009238 
-0.003745 -0.017030 -0.014226 
-0.006023 -0.025520 -0.021327 
-0.009387 -0.037239 -0.031155 
-0.014226 -0.052867 -0.044328 
-0.020994 -0.072825 -0.061311 
-0.030163 -0.096825 -0.082107 