# vtk DataFile Version 3.0
grids
ASCII
DATASET POLYDATA
POINTS 1549 float
0.000000 0.000000 0.000000
0.085714 0.000000 0.000000
0.171429 0.000000 0.000000
0.257143 0.000000 0.000000
0.342857 0.000000 0.000000
0.428571 0.000000 0.000000
0.514286 0.000000 0.000000
0.600000 0.000000 0.000000
0.685714 0.000000 0.000000
0.771429 0.000000 0.000000
0.857143 0.000000 0.000000
0.942857 0.000000 0.000000
1.028571 0.000000 0.000000
1.114286 0.000000 0.000000
1.200000 0.000000 0.000000
1.285714 0.000000 0.000000
1.371429 0.000000 0.000000
1.457143 0.000000 0.000000
1.542857 0.000000 0.000000
1.628572 0.000000 0.000000
1.714286 0.000000 0.000000
1.800000 0.000000 0.000000
1.885714 0.000000 0.000000
1.971429 0.000000 0.000000
2.057143 0.000000 0.000000
2.142857 0.000000 0.000000
2.228571 0.000000 0.000000
2.314286 0.000000 0.000000
2.400000 0.000000 0.000000
2.485714 0.000000 0.000000
2.571429 0.000000 0.000000
2.657143 0.000000 0.000000
2.742857 0.000000 0.000000
2.828572 0.000000 0.000000
2.914286 0.000000 0.000000
3.000000 0.000000 0.000000
0.000000 0.090909 0.000000
0.085714 0.090909 0.000000
0.171429 0.090909 0.000000
0.257143 0.090909 0.000000
0.342857 0.090909 0.000000
0.428571 0.090909 0.000000
0.514286 0.090909 0.000000
0.600000 0.090909 0.000000
0.685714 0.090909 0.000000
0.771429 0.090909 0.000000
0.857143 0.090909 0.000000
0.942857 0.090909 0.000000
1.028571 0.090909 0.000000
1.114286 0.090909 0.000000
1.200000 0.090909 0.000000
1.285714 0.090909 0.000000
1.371429 0.090909 0.000000
1.457143 0.090909 0.000000
1.542857 0.090909 0.000000
1.628572 0.090909 0.000000
1.714286 0.090909 0.000000
1.800000 0.090909 0.000000
1.885714 0.090909 0.000000
1.971429 0.090909 0.000000
2.057143 0.090909 0.000000
2.142857 0.090909 0.000000
2.228571 0.090909 0.000000
2.314286 0.090909 0.000000
2.400000 0.090909 0.000000
2.485714 0.090909 0.000000
2.571429 0.090909 0.000000
2.657143 0.090909 0.000000
2.742857 0.090909 0.000000
2.828572 0.090909 0.000000
2.914286 0.090909 0.000000
3.000000 0.090909 0.000000
0.000000 0.181818 0.000000
0.085714 0.181818 0.000000
0.171429 0.181818 0.000000
0.257143 0.181818 0.000000
0.342857 0.181818 0.000000
0.428571 0.181818 0.000000
0.514286 0.181818 0.000000
0.600000 0.181818 0.000000
0.685714 0.181818 0.000000
0.771429 0.181818 0.000000
0.857143 0.181818 0.000000
0.942857 0.181818 0.000000
1.028571 0.181818 0.000000
1.114286 0.181818 0.000000
1.200000 0.181818 0.000000
1.285714 0.181818 0.000000
1.371429 0.181818 0.000000
1.457143 0.181818 0.000000
1.542857 0.181818 0.000000
1.628572 0.181818 0.000000
1.714286 0.181818 0.000000
1.800000 0.181818 0.000000
1.885714 0.181818 0.000000
1.971429 0.181818 0.000000
2.057143 0.181818 0.000000
2.142857 0.181818 0.000000
2.228571 0.181818 0.000000
2.314286 0.181818 0.000000
2.400000 0.181818 0.000000
2.485714 0.181818 0.000000
2.571429 0.181818 0.000000
2.657143 0.181818 0.000000
2.742857 0.181818 0.000000
2.828572 0.181818 0.000000
2.914286 0.181818 0.000000
3.000000 0.181818 0.000000
0.000000 0.272727 0.000000
0.085714 0.272727 0.000000
0.171429 0.272727 0.000000
0.257143 0.272727 0.000000
0.342857 0.272727 0.000000
0.428571 0.272727 0.000000
0.514286 0.272727 0.000000
0.600000 0.272727 0.000000
0.685714 0.272727 0.000000
0.771429 0.272727 0.000000
0.857143 0.272727 0.000000
0.942857 0.272727 0.000000
1.028571 0.272727 0.000000
1.114286 0.272727 0.000000
1.200000 0.272727 0.000000
1.285714 0.272727 0.000000
1.371429 0.272727 0.000000
1.457143 0.272727 0.000000
1.542857 0.272727 0.000000
1.628572 0.272727 0.000000
1.714286 0.272727 0.000000
1.800000 0.272727 0.000000
1.885714 0.272727 0.000000
1.971429 0.272727 0.000000
2.057143 0.272727 0.000000
2.142857 0.272727 0.000000
2.228571 0.272727 0.000000
2.314286 0.272727 0.000000
2.400000 0.272727 0.000000
2.485714 0.272727 0.000000
2.571429 0.272727 0.000000
2.657143 0.272727 0.000000
2.742857 0.272727 0.000000
2.828572 0.272727 0.000000
2.914286 0.272727 0.000000
3.000000 0.272727 0.000000
0.000000 0.363636 0.000000
0.085714 0.363636 0.000000
0.171429 0.363636 0.000000
0.257143 0.363636 0.000000
0.342857 0.363636 0.000000
0.428571 0.363636 0.000000
0.514286 0.363636 0.000000
0.600000 0.363636 0.000000
0.685714 0.363636 0.000000
0.771429 0.363636 0.000000
0.857143 0.363636 0.000000
0.942857 0.363636 0.000000
1.028571 0.363636 0.000000
1.114286 0.363636 0.000000
1.200000 0.363636 0.000000
1.285714 0.363636 0.000000
1.371429 0.363636 0.000000
1.457143 0.363636 0.000000
1.542857 0.363636 0.000000
1.628572 0.363636 0.000000
1.714286 0.363636 0.000000
1.800000 0.363636 0.000000
1.885714 0.363636 0.000000
1.971429 0.363636 0.000000
2.057143 0.363636 0.000000
2.142857 0.363636 0.000000
2.228571 0.363636 0.000000
2.314286 0.363636 0.000000
2.400000 0.363636 0.000000
2.485714 0.363636 0.000000
2.571429 0.363636 0.000000
2.657143 0.363636 0.000000
2.742857 0.363636 0.000000
2.828572 0.363636 0.000000
2.914286 0.363636 0.000000
3.000000 0.363636 0.000000
0.000000 0.454545 0.000000
0.085714 0.454545 0.000000
0.171429 0.454545 0.000000
0.257143 0.454545 0.000000
0.342857 0.454545 0.000000
0.428571 0.454545 0.000000
0.514286 0.454545 0.000000
0.600000 0.454545 0.000000
0.685714 0.454545 0.000000
0.771429 0.454545 0.000000
0.857143 0.454545 0.000000
0.942857 0.454545 0.000000
1.028571 0.454545 0.000000
1.114286 0.454545 0.000000
1.200000 0.454545 0.000000
1.285714 0.454545 0.000000
1.371429 0.454545 0.000000
1.457143 0.454545 0.000000
1.542857 0.454545 0.000000
1.628572 0.454545 0.000000
1.714286 0.454545 0.000000
1.800000 0.454545 0.000000
1.885714 0.454545 0.000000
1.971429 0.454545 0.000000
2.057143 0.454545 0.000000
2.142857 0.454545 0.000000
2.228571 0.454545 0.000000
2.314286 0.454545 0.000000
2.400000 0.454545 0.000000
2.485714 0.454545 0.000000
2.571429 0.454545 0.000000
2.657143 0.454545 0.000000
2.742857 0.454545 0.000000
2.828572 0.454545 0.000000
2.914286 0.454545 0.000000
3.000000 0.454545 0.000000
0.000000 0.000000 0.090909
0.085714 0.000000 0.090909
0.171429 0.000000 0.090909
0.257143 0.000000 0.090909
0.342857 0.000000 0.090909
0.428571 0.000000 0.090909
0.514286 0.000000 0.090909
0.600000 0.000000 0.090909
0.685714 0.000000 0.090909
0.771429 0.000000 0.090909
0.857143 0.000000 0.090909
0.942857 0.000000 0.090909
1.028571 0.000000 0.090909
1.114286 0.000000 0.090909
1.200000 0.000000 0.090909
1.285714 0.000000 0.090909
1.371429 0.000000 0.090909
1.457143 0.000000 0.090909
1.542857 0.000000 0.090909
1.628572 0.000000 0.090909
1.714286 0.000000 0.090909
1.800000 0.000000 0.090909
1.885714 0.000000 0.090909
1.971429 0.000000 0.090909
2.057143 0.000000 0.090909
2.142857 0.000000 0.090909
2.228571 0.000000 0.090909
2.314286 0.000000 0.090909
2.400000 0.000000 0.090909
2.485714 0.000000 0.090909
2.571429 0.000000 0.090909
2.657143 0.000000 0.090909
2.742857 0.000000 0.090909
2.828572 0.000000 0.090909
2.914286 0.000000 0.090909
3.000000 0.000000 0.090909
0.000000 0.090909 0.090909
0.085714 0.090909 0.090909
0.171429 0.090909 0.090909
0.257143 0.090909 0.090909
0.342857 0.090909 0.090909
0.428571 0.090909 0.090909
0.514286 0.090909 0.090909
0.600000 0.090909 0.090909
0.685714 0.090909 0.090909
0.771429 0.090909 0.090909
0.857143 0.090909 0.090909
0.942857 0.090909 0.090909
1.028571 0.090909 0.090909
1.114286 0.090909 0.090909
1.200000 0.090909 0.090909
1.285714 0.090909 0.090909
1.371429 0.090909 0.090909
1.457143 0.090909 0.090909
1.542857 0.090909 0.090909
1.628572 0.090909 0.090909
1.714286 0.090909 0.090909
1.800000 0.090909 0.090909
1.885714 0.090909 0.090909
1.971429 0.090909 0.090909
2.057143 0.090909 0.090909
2.142857 0.090909 0.090909
2.228571 0.090909 0.090909
2.314286 0.090909 0.090909
2.400000 0.090909 0.090909
2.485714 0.090909 0.090909
2.571429 0.090909 0.090909
2.657143 0.090909 0.090909
2.742857 0.090909 0.090909
2.828572 0.090909 0.090909
2.914286 0.090909 0.090909
3.000000 0.090909 0.090909
0.000000 0.181818 0.090909
0.085714 0.181818 0.090909
0.171429 0.181818 0.090909
0.257143 0.181818 0.090909
0.342857 0.181818 0.090909
0.428571 0.181818 0.090909
0.514286 0.181818 0.090909
0.600000 0.181818 0.090909
0.685714 0.181818 0.090909
0.771429 0.181818 0.090909
0.857143 0.181818 0.090909
0.942857 0.181818 0.090909
1.028571 0.181818 0.090909
1.114286 0.181818 0.090909
1.200000 0.181818 0.090909
1.285714 0.181818 0.090909
1.371429 0.181818 0.090909
1.457143 0.181818 0.090909
1.542857 0.181818 0.090909
1.628572 0.181818 0.090909
1.714286 0.181818 0.090909
1.800000 0.181818 0.090909
1.885714 0.181818 0.090909
1.971429 0.181818 0.090909
2.057143 0.181818 0.090909
2.142857 0.181818 0.090909
2.228571 0.181818 0.090909
2.314286 0.181818 0.090909
2.400000 0.181818 0.090909
2.485714 0.181818 0.090909
2.571429 0.181818 0.090909
2.657143 0.181818 0.090909
2.742857 0.181818 0.090909
2.828572 0.181818 0.090909
2.914286 0.181818 0.090909
3.000000 0.181818 0.090909
0.000000 0.272727 0.090909
0.085714 0.272727 0.090909
0.171429 0.272727 0.090909
0.257143 0.272727 0.090909
0.342857 0.272727 0.090909
0.428571 0.272727 0.090909
0.514286 0.272727 0.090909
0.600000 0.272727 0.090909
0.685714 0.272727 0.090909
0.771429 0.272727 0.090909
0.857143 0.272727 0.090909
0.942857 0.272727 0.090909
1.028571 0.272727 0.090909
1.114286 0.272727 0.090909
1.200000 0.272727 0.090909
1.285714 0.272727 0.090909
1.371429 0.272727 0.090909
1.457143 0.272727 0.090909
1.542857 0.272727 0.090909
1.628572 0.272727 0.090909
1.714286 0.272727 0.090909
1.800000 0.272727 0.090909
1.885714 0.272727 0.090909
1.971429 0.272727 0.090909
2.057143 0.272727 0.090909
2.142857 0.272727 0.090909
2.228571 0.272727 0.090909
2.314286 0.272727 0.090909
2.400000 0.272727 0.090909
2.485714 0.272727 0.090909
2.571429 0.272727 0.090909
2.657143 0.272727 0.090909
2.742857 0.272727 0.090909
2.828572 0.272727 0.090909
2.914286 0.272727 0.090909
3.000000 0.272727 0.090909
0.000000 0.363636 0.090909
0.085714 0.363636 0.090909
0.171429 0.363636 0.090909
0.257143 0.363636 0.090909
0.342857 0.363636 0.090909
0.428571 0.363636 0.090909
0.514286 0.363636 0.090909
[...]
POINT_DATA 1549
VECTORS attr0 float
0.000000 0.000000 0.000000 
-0.000000 0.000000 0.000000 
0.000000 0.000000 0.000000 
-0.000000 0.000000 0.000000 
0.000000 0.000000 0.000000 
-0.000000 0.000000 0.000000 
0.000000 0.000000 0.000000 
-0.000000 0.000000 0.000000 
-0.000000 0.000000 0.000000 
0.000000 0.000000 0.000000 
0.000000 0.000000 0.000000 
0.000000 0.000000 0.000000 
-0.000000 0.000000 0.000000 
0.000000 0.000000 0.000000 
0.000000 0.000000 0.000000 
0.000000 0.000000 0.000000 
-0.000000 0.000000 0.000000 
-0.000000 0.000000 0.000000 
0.000000 0.000000 0.000000 
0.000000 0.000000 0.000000 
0.000000 0.000000 0.000000 
0.000000 0.000000 0.000000 
0.000000 0.000000 0.000000 
0.000000 0.000000 0.000000 
0.000000 0.000000 0.000000 
0.000000 0.000000 0.000000 
0.000000 0.000000 0.000000 
0.000000 0.000000 0.000000 
0.000000 0.000000 0.000000 
0.000000 0.000000 0.000000 
0.000000 0.000000 0.000000 
0.000000 0.000000 0.000000 
0.000000 0.000000 0.000000 
0.000000 0.000000 0.000000 
0.000000 0.000000 0.000000 
0.000000 0.000000 0.000000 
0.000000 -0.000000 0.000000 
0.000000 0.000000 0.000000 
0.000000 0.000000 0.000000 
0.000000 0.000000 0.000000 
0.000000 0.000000 0.000000 
0.000000 0.000000 0.000000 
0.000000 0.000000 0.000000 
0.000000 0.000000 0.000000 
0.000000 0.000000 0.000000 
0.000000 0.000000 0.000000 
0.000000 0.000000 0.000000 
0.000000 -0.000000 0.000000 
0.000000 -0.000000 0.000000 
0.000000 -0.000000 0.000000 
0.000000 -0.000000 0.000000 
0.000000 -0.000000 0.000000 
-0.000000 -0.000000 0.000000 
-0.000000 -0.000000 0.000000 
0.000000 0.000000 0.000000 
0.000000 0.000000 0.000000 
0.000000 0.000000 0.000000 
0.000000 0.000000 0.000000 
0.000000 0.000000 0.000000 
0.000000 0.000000 0.000000 
0.000000 0.000000 0.000000 
0.000000 0.000000 0.000000 
0.000000 0.000000 0.000000 
0.000000 0.000000 0.000000 
0.000000 0.000000 0.000000 
0.000000 0.000000 0.000000 
0.000000 0.000000 0.000000 
0.000000 0.000000 0.000000 
0.000000 0.000000 0.000000 
0.000000 0.000000 0.000000 
0.000000 0.000000 0.000000 
0.000000 0.000000 1.000000 
0.000000 0.000000 0.000000 
0.000000 0.000000 0.000000 
0.000000 0.000000 0.000000 
0.000000 0.000000 0.000000 
0.000000 0.000000 0.000000 
0.000000 0.000000 0.000000 
0.000000 0.000000 0.000000 
0.000000 0.000000 0.000000 
0.000000 0.000000 0.000000 
0.000000 0.000000 0.000000 
0.000000 0.000000 0.000000 
0.000000 0.000000 0.000000 
0.000000 -0.000000 0.000000 
0.000000 -0.000000 0.000000 
0.000000 -0.000000 0.000000 
0.000000 -0.000000 0.000000 
0.000000 0.000000 0.000000 
-0.000000 0.000000 0.000000 
0.000000 0.000000 0.000000 
0.000000 0.000000 0.000000 
0.000000 0.000000 0.000000 
0.000000 0.000000 0.000000 
0.000000 0.000000 0.000000 
0.000000 0.000000 0.000000 
0.000000 0.000000 0.000000 
0.000000 0.000000 0.000000 
0.000000 0.000000 0.000000 
0.000000 0.000000 0.000000 
0.000000 0.000000 0.000000 
0.000000 0.000000 0.000000 
0.000000 0.000000 0.000000 
0.000000 0.000000 0.000000 
0.000000 0.000000 0.000000 
0.000000 0.000000 0.000000 
0.000000 0.000000 0.000000 
0.000000 0.000000 1.000000 
0.000000 -0.000000 0.000000 
0.000000 0.000000 0.000000 
0.000000 0.000000 0.000000 
0.000000 0.000000 0.000000 
0.000000 0.000000 0.000000 
0.000000 0.000000 0.000000 
0.000000 0.000000 0.000000 
0.000000 0.000000 0.000000 
0.000000 0.000000 0.000000 
0.000000 0.000000 0.000000 
0.000000 0.000000 0.000000 
0.000000 -0.000000 0.000000 
0.000000 -0.000000 0.000000 
0.000000 0.000000 0.000000 
0.000000 -0.000000 0.000000 
0.000000 -0.000000 0.000000 
0.000000 0.000000 0.000000 
-0.000000 0.000000 0.000000 
0.000000 0.000000 0.000000 
0.000000 0.000000 0.000000 
0.000000 0.000000 0.000000 
0.000000 0.000000 0.000000 
0.000000 0.000000 0.000000 
0.000000 0.000000 0.000000 
0.000000 0.000000 0.000000 
0.000000 0.000000 0.000000 
0.000000 0.000000 0.000000 
0.000000 0.000000 0.000000 
0.000000 0.000000 0.000000 
0.000000 0.000000 0.000000 
0.000000 0.000000 0.000000 
0.000000 0.000000 0.000000 
0.000000 0.000000 0.000000 
0.000000 0.000000 0.000000 
0.000000 0.000000 0.000000 
0.000000 0.000000 1.000000 
0.000000 0.000000 0.000000 
0.000000 0.000000 0.000000 
0.000000 0.000000 0.000000 
0.000000 0.000000 0.000000 
0.000000 0.000000 0.000000 
0.000000 0.000000 0.000000 
0.000000 0.000000 0.000000 
0.000000 0.000000 0.000000 
0.000000 0.000000 0.000000 
0.000000 0.000000 0.000000 
0.000000 -0.000000 0.000000 
0.000000 -0.000000 0.000000 
0.000000 0.000000 0.000000 
0.000000 -0.000000 0.000000 
0.000000 -0.000000 0.000000 
0.000000 0.000000 0.000000 
0.000000 0.000000 0.000000 
0.000000 -0.000000 0.000000 
0.000000 0.000000 0.000000 
0.000000 0.000000 0.000000 
0.000000 0.000000 0.000000 
0.000000 0.000000 0.000000 
0.000000 0.000000 0.000000 
0.000000 0.000000 0.000000 
0.000000 0.000000 0.000000 
0.000000 0.000000 0.000000 
0.000000 0.000000 0.000000 
0.000000 0.000000 0.000000 
0.000000 0.000000 0.000000 
0.000000 0.000000 0.000000 
0.000000 0.000000 0.000000 
0.000000 0.000000 0.000000 
0.000000 0.000000 0.000000 
0.000000 0.000000 0.000000 
0.000000 0.000000 0.000000 
0.000000 0.000000 1.000000 
0.000000 0.000000 0.000000 
0.000000 0.000000 0.000000 
0.000000 0.000000 0.000000 
0.000000 0.000000 0.000000 
0.000000 0.000000 0.000000 
0.000000 0.000000 0.000000 
0.000000 0.000000 0.000000 
0.000000 0.000000 0.000000 
0.000000 0.000000 0.000000 
0.000000 0.000000 0.000000 
0.000000 0.000000 0.000000 
0.000000 -0.000000 0.000000 
0.000000 -0.000000 0.000000 
0.000000 -0.000000 0.000000 
0.000000 -0.000000 0.000000 
0.000000 0.000000 0.000000 
0.000000 0.000000 0.000000 
0.000000 0.000000 0.000000 
0.000000 0.000000 0.000000 
0.000000 0.000000 0.000000 
0.000000 0.000000 0.000000 
0.000000 0.000000 0.000000 
0.000000 0.000000 0.000000 
0.000000 0.000000 0.000000 
0.000000 0.000000 0.000000 
0.000000 0.000000 0.000000 
0.000000 0.000000 0.000000 
0.000000 0.000000 0.000000 
0.000000 0.000000 0.000000 
0.000000 0.000000 0.000000 
0.000000 0.000000 0.000000 
0.000000 0.000000 0.000000 
0.000000 0.000000 0.000000 
0.000000 0.000000 0.000000 
0.000000 0.000000 0.000000 
0.000000 0.000000 1.000000 
0.000000 0.000000 -0.000000 
0.000000 0.000000 0.000000 
0.000000 0.000000 0.000000 
0.000000 0.000000 0.000000 
0.000000 0.000000 0.000000 
0.000000 0.000000 0.000000 
0.000000 0.000000 0.000000 
0.000000 0.000000 0.000000 
0.000000 0.000000 0.000000 
0.000000 0.000000 0.000000 
0.000000 0.000000 0.000000 
0.000000 0.000000 -0.000000 
0.000000 0.000000 -0.000000 
0.000000 0.000000 -0.000000 
0.000000 0.000000 -0.000000 
0.000000 0.000000 -0.000000 
-0.000000 0.000000 -0.000000 
-0.000000 0.000000 -0.000000 
0.000000 0.000000 0.000000 
-0.000000 0.000000 0.000000 
0.000000 0.000000 0.000000 
-0.000000 0.000000 0.000000 
0.000000 0.000000 0.000000 
0.000000 0.000000 0.000000 
0.000000 0.000000 0.000000 
-0.000000 0.000000 0.000000 
-0.000000 0.000000 0.000000 
0.000000 0.000000 0.000000 
0.000000 0.000000 0.000000 
0.000000 0.000000 0.000000 
0.000000 0.000000 0.000000 
0.000000 0.000000 0.000000 
0.000000 0.000000 0.000000 
0.000000 0.000000 0.000000 
0.000000 0.000000 0.000000 
0.000000 1.000000 0.000000 
0.000000 0.000000 0.000000 
-0.000000 -0.000000 -0.000000 
-0.000001 0.000000 0.000000 
-0.000003 0.000001 0.000001 
-0.000006 0.000001 0.000001 
-0.000010 0.000002 0.000002 
-0.000016 0.000003 0.000003 
-0.000024 0.000004 0.000004 
-0.000035 0.000005 0.000005 
-0.000050 0.000007 0.000007 
-0.000069 0.000009 0.000009 
-0.000091 0.000010 0.000010 
-0.000116 0.000011 0.000011 
-0.000140 0.000011 0.000011 
-0.000155 0.000006 0.000006 
-0.000147 -0.000004 -0.000004 
-0.000090 -0.000027 -0.000027 
0.000059 -0.000069 -0.000069 
0.000365 -0.000142 -0.000142 
0.000937 -0.000264 -0.000264 
0.001935 -0.000461 -0.000461 
0.003598 -0.000767 -0.000767 
0.006273 -0.001234 -0.001234 
0.010452 -0.001931 -0.001931 
0.016816 -0.002949 -0.002949 
0.026287 -0.004414 -0.004414 
0.040090 -0.006499 -0.006499 
0.059809 -0.009447 -0.009447 
0.087441 -0.013631 -0.013631 
0.125409 -0.019640 -0.019640 
0.176379 -0.028376 -0.028376 
0.242312 -0.040760 -0.040760 
0.320755 -0.054854 -0.054854 
0.391709 -0.049491 -0.049491 
0.374617 0.097486 0.097486 
0.000000 1.000000 1.000000 
0.000000 0.000000 0.000000 
-0.000001 0.000001 0.000000 
-0.000002 0.000001 0.000001 
-0.000005 0.000002 0.000001 
-0.000009 0.000004 0.000002 
-0.000015 0.000005 0.000003 
-0.000024 0.000007 0.000004 
-0.000036 0.000010 0.000006 
-0.000052 0.000014 0.000008 
-0.000073 0.000018 0.000010 
-0.000099 0.000022 0.000013 
-0.000129 0.000025 0.000015 
-0.000161 0.000026 0.000016 
-0.000189 0.000021 0.000014 
-0.000198 0.000003 0.000005 
-0.000167 -0.000035 -0.000014 
-0.000055 -0.000109 -0.000052 
0.000204 -0.000241 -0.000122 
0.000713 -0.000466 -0.000241 
0.001633 -0.000832 -0.000438 
0.003206 -0.001411 -0.000750 
0.005784 -0.002301 -0.001233 
0.009875 -0.003635 -0.001962 
0.016185 -0.005591 -0.003038 
0.025673 -0.008398 -0.004594 
0.039601 -0.012343 -0.006804 
0.059573 -0.017776 -0.009896 
0.087523 -0.025110 -0.014173 
0.125610 -0.034788 -0.020065 
0.175864 -0.047164 -0.028191 
0.239281 -0.061994 -0.039362 
0.313487 -0.076563 -0.053933 
0.386943 -0.079226 -0.067798 
0.425354 -0.028563 -0.053448 
0.345609 0.207724 0.119869 
0.000000 1.000000 1.000000 
0.000000 0.000000 0.000000 
-0.000001 0.000001 0.000000 
-0.000002 0.000003 0.000001 
-0.000006 0.000004 0.000002 
-0.000010 0.000006 0.000002 
-0.000017 0.000009 0.000003 
-0.000026 0.000012 0.000005 
-0.000039 0.000017 0.000007 
-0.000056 0.000022 0.000009 
-0.000078 0.000029 0.000012 
-0.000105 0.000035 0.000014 
-0.000137 0.000039 0.000017 
-0.000169 0.000038 0.000017 
-0.000194 0.000026 0.000014 
-0.000197 -0.000007 0.000003 
-0.000153 -0.000078 -0.000022 
-0.000016 -0.000210 -0.000070 
0.000286 -0.000444 -0.000157 
0.000868 -0.000835 -0.000303 
0.001906 -0.001466 -0.000543 
0.003662 -0.002454 -0.000920 
0.006519 -0.003959 -0.001501 
0.011019 -0.006196 -0.002371 
0.017908 -0.009440 -0.003646 
0.028187 -0.014032 -0.005473 
0.043142 -0.020369 -0.008042 
0.064342 -0.028867 -0.011585 
0.093563 -0.039872 -0.016402 
0.132548 -0.053462 -0.022881 
0.182449 -0.068985 -0.031545 
0.242664 -0.083960 -0.042994 
0.308453 -0.091388 -0.057148 
0.366211 -0.073115 -0.069090 
0.384505 0.016203 -0.050325 
0.299347 0.286552 0.128295 
0.000000 1.000000 1.000000 
0.000000 0.000000 0.000000 
-0.000001 0.000002 0.000000 
-0.000002 0.000004 0.000001 
-0.000005 0.000006 0.000002 
-0.000009 0.000008 0.000003 
-0.000015 0.000012 0.000004 
-0.000024 0.000016 0.000005 
-0.000036 0.000022 0.000007 
-0.000052 0.000029 0.000010 
-0.000072 0.000037 0.000012 
-0.000097 0.000045 0.000015 
-0.000127 0.000050 0.000018 
-0.000156 0.000047 0.000018 
-0.000180 0.000030 0.000014 
-0.000183 -0.000015 0.000001 
-0.000143 -0.000110 -0.000027 
-0.000017 -0.000288 -0.000080 
0.000261 -0.000598 -0.000175 
0.000798 -0.001115 -0.000335 
0.001755 -0.001947 -0.000596 
0.003375 -0.003245 -0.001006 
0.006008 -0.005214 -0.001634 
0.010153 -0.008126 -0.002571 
0.016492 -0.012325 -0.003938 
0.025935 -0.018219 -0.005887 
0.039636 -0.026251 -0.008608 
0.058986 -0.036813 -0.012327 
0.085514 -0.050065 -0.017320 
0.120639 -0.065580 -0.023931 
0.165149 -0.081628 -0.032592 
0.218189 -0.093815 -0.043751 
0.275379 -0.092397 -0.057105 
0.325244 -0.056942 -0.067480 
0.342136 0.054922 -0.046417 
0.271395 0.334279 0.133713 
0.000000 1.000000 1.000000 
0.000000 0.000000 0.000000 
-0.000000 0.000002 0.000000 
-0.000002 0.000004 0.000001 
-0.000004 0.000006 0.000002 
-0.000007 0.000009 0.000003 
-0.000012 0.000013 0.000004 
-0.000019 0.000018 0.000005 
-0.000029 0.000024 0.000007 
-0.000042 0.000032 0.000010 
-0.000059 0.000041 0.000013 
-0.000081 0.000050 0.000016 
-0.000106 0.000056 0.000018 
-0.000133 0.000055 0.000018 
-0.000156 0.000037 0.000014 
-0.000165 -0.000011 0.000001 
-0.000142 -0.000114 -0.000027 
-0.000053 -0.000306 -0.000081 
0.000153 -0.000644 -0.000177 
0.000562 -0.001209 -0.000340 
0.001303 -0.002120 -0.000605 
0.002572 -0.003544 -0.001023 
0.004652 -0.005706 -0.001661 
0.007951 -0.008904 -0.002615 
0.013028 -0.013512 -0.004004 
0.020633 -0.019966 -0.005981 
0.031734 -0.028719 -0.008734 
0.047512 -0.040125 -0.012482 
0.069314 -0.054209 -0.017487 
0.098490 -0.070211 -0.024059 
0.136051 -0.085769 -0.032576 
0.181953 -0.095481 -0.043395 
0.233628 -0.088441 -0.056086 
0.282751 -0.043868 -0.065358 
0.307581 0.077730 -0.042849 
0.254620 0.357926 0.138020 
0.000000 1.000000 1.000000 
0.000000 0.000000 0.000000 
0.000000 0.000000 0.000000 
0.000000 0.000000 0.000000 
0.000000 0.000000 0.000000 
0.000000 0.000000 0.000000 
0.000000 0.000000 0.000000 
0.000000 0.000000 0.000000 
0.000000 0.000000 0.000000 
0.000000 0.000000 0.000000 
0.000000 0.000000 0.000000 
0.000000 0.000000 0.000000 
0.000000 0.000000 0.000000 
0.000000 0.000000 -0.000000 
0.000000 0.000000 -0.000000 
0.000000 0.000000 -0.000000 
0.000000 0.000000 -0.000000 
-0.000000 0.000000 0.000000 
-0.000000 0.000000 0.000000 
0.000000 0.000000 0.000000 
0.000000 0.000000 0.000000 
0.000000 0.000000 0.000000 
0.000000 0.000000 0.000000 
0.000000 0.000000 0.000000 
0.000000 0.000000 0.000000 
0.000000 0.000000 0.000000 
0.000000 0.000000 0.000000 
-0.000000 0.000000 0.000000 
0.000000 0.000000 0.000000 
-0.000000 0.000000 0.000000 
-0.000000 0.000000 0.000000 
0.000000 0.000000 0.000000 
-0.000000 0.000000 0.000000 
0.000000 0.000000 0.000000 
0.000000 0.000000 0.000000 
0.000000 0.000000 0.000000 
0.000000 1.000000 0.000000 
0.000000 0.000000 0.000000 
-0.000001 0.000000 0.000001 
-0.000002 0.000001 0.000001 
-0.000005 0.000001 0.000002 
-0.000009 0.000002 0.000004 
-0.000015 0.000003 0.000005 
-0.000024 0.000004 0.000007 
-0.000036 0.000006 0.000010 
-0.000052 0.000008 0.000014 
-0.000073 0.000010 0.000018 
-0.000099 0.000013 0.000022 
-0.000129 0.000015 0.000025 
-0.000161 0.000016 0.000026 
-0.000189 0.000014 0.000021 
-0.000198 0.000005 0.000003 
-0.000167 -0.000014 -0.000035 
-0.000055 -0.000052 -0.000109 
0.000204 -0.000122 -0.000241 
0.000713 -0.000241 -0.000466 
0.001633 -0.000438 -0.000832 
0.003206 -0.000750 -0.001411 
0.005784 -0.001233 -0.002301 
0.009875 -0.001962 -0.003635 
0.016185 -0.003038 -0.005591 
0.025673 -0.004594 -0.008398 
0.039601 -0.006804 -0.012343 
0.059573 -0.009896 -0.017776 
0.087523 -0.014173 -0.025110 
0.125610 -0.020065 -0.034788 
0.175864 -0.028191 -0.047164 
0.239281 -0.039362 -0.061994 
0.313487 -0.053933 -0.076563 
0.386943 -0.067798 -0.079226 
0.425354 -0.053448 -0.028563 
0.345609 0.119869 0.207724 
0.000000 1.000000 1.000000 
0.000000 0.000000 0.000000 
-0.000001 0.000001 0.000001 
-0.000004 0.000002 0.000002 
-0.000008 0.000004 0.000004 
-0.000015 0.000006 0.000006 
-0.000024 0.000009 0.000009 
-0.000037 0.000012 0.000012 
-0.000055 0.000016 0.000016 
-0.000079 0.000022 0.000022 
-0.000109 0.000028 0.000028 
-0.000146 0.000034 0.000034 
-0.000187 0.000038 0.000038 
-0.000228 0.000036 0.000036 
-0.000257 0.000024 0.000024 
-0.000251 -0.000009 -0.000009 
-0.000172 -0.000079 -0.000079 
0.000045 -0.000210 -0.000210 
0.000505 -0.000439 -0.000439 
0.001374 -0.000823 -0.000823 
0.002903 -0.001442 -0.001442 
0.005464 -0.002409 -0.002409 
0.009599 -0.003882 -0.003882 
0.016070 -0.006070 -0.006070 
0.025924 -0.009245 -0.009245 
0.040550 -0.013752 -0.013752 
0.061721 -0.020000 -0.020000 
0.091577 -0.028459 -0.028459 
0.132481 -0.039614 -0.039614 
0.186605 -0.053864 -0.053864 
0.254978 -0.071215 -0.071215 
0.335418 -0.090379 -0.090379 
0.418319 -0.105982 -0.105982 
0.478772 -0.100386 -0.100386 
0.465394 -0.021855 -0.021855 
0.302192 0.262068 0.262068 
0.000000 1.000000 1.000000 
0.000000 0.000000 0.000000 
-0.000001 0.000002 0.000001 
-0.000004 0.000004 0.000003 
-0.000009 0.000007 0.000005 
-0.000017 0.000010 0.000007 
-0.000027 0.000015 0.000011 
-0.000041 0.000020 0.000015 
-0.000061 0.000028 0.000020 
-0.000086 0.000036 0.000026 
-0.000118 0.000046 0.000033 
-0.000157 0.000054 0.000039 
-0.000199 0.000058 0.000043 
-0.000239 0.000052 0.000039 
-0.000261 0.000026 0.000021 
-0.000241 -0.000040 -0.000025 
-0.000133 -0.000171 -0.000117 
0.000136 -0.000412 -0.000287 
0.000686 -0.000827 -0.000581 
0.001701 -0.001513 -0.001069 
0.003463 -0.002606 -0.001849 
0.006383 -0.004301 -0.003059 
0.011053 -0.006857 -0.004889 
0.018302 -0.010619 -0.007588 
0.029249 -0.016019 -0.011475 
0.045354 -0.023577 -0.016941 
0.068430 -0.033864 -0.024437 
0.100558 -0.047420 -0.034441 
0.143835 -0.064567 -0.047384 
0.199750 -0.085026 -0.063481 
0.267925 -0.107108 -0.082326 
0.343717 -0.125982 -0.101819 
0.414090 -0.129954 -0.115201 
0.451660 -0.092762 -0.102945 
0.410425 0.040193 -0.012568 
0.241794 0.366669 0.281254 
0.000000 1.000000 1.000000 
0.000000 0.000000 0.000000 
-0.000001 0.000003 0.000001 
-0.000004 0.000006 0.000003 
-0.000009 0.000010 0.000005 
-0.000015 0.000014 0.000008 
-0.000025 0.000020 0.000012 
-0.000038 0.000027 0.000016 
-0.000056 0.000037 0.000022 
-0.000080 0.000048 0.000029 
-0.000109 0.000060 0.000036 
-0.000145 0.000070 0.000042 
-0.000183 0.000074 0.000045 
-0.000218 0.000064 0.000040 
-0.000236 0.000025 0.000018 
-0.000214 -0.000067 -0.000035 
-0.000108 -0.000248 -0.000141 
0.000149 -0.000577 -0.000333 
0.000670 -0.001141 -0.000664 
0.001626 -0.002068 -0.001210 
0.003278 -0.003538 -0.002079 
0.006007 -0.005807 -0.003421 
0.010359 -0.009213 -0.005443 
0.017093 -0.014198 -0.008411 
0.027231 -0.021307 -0.012666 
0.042091 -0.031166 -0.018612 
0.063282 -0.044409 -0.026705 
0.092606 -0.061515 -0.037400 
0.131777 -0.082468 -0.051052 
0.181802 -0.106127 -0.067712 
0.241783 -0.129057 -0.086679 
0.306799 -0.143469 -0.105390 
0.364573 -0.133706 -0.116490 
0.391233 -0.070799 -0.100050 
0.349459 0.094151 -0.004414 
0.203123 0.431176 0.291497 
0.000000 1.000000 1.000000 
0.000000 0.000000 0.000000 
-0.000001 0.000004 0.000002 
-0.000003 0.000007 0.000003 
-0.000007 0.000011 0.000006 
-0.000012 0.000016 0.000008 
-0.000020 0.000022 0.000012 
-0.000031 0.000030 0.000017 
-0.000045 0.000041 0.000023 
-0.000064 0.000054 0.000029 
-0.000089 0.000067 0.000037 
-0.000118 0.000079 0.000044 
-0.000150 0.000084 0.000047 
-0.000180 0.000072 0.000041 
-0.000198 0.000029 0.000018 
-0.000185 -0.000073 -0.000037 
-0.000108 -0.000275 -0.000146 
0.000089 -0.000642 -0.000345 
0.000492 -0.001272 -0.000688 
0.001240 -0.002308 -0.001251 
0.002539 -0.003952 -0.002148 
0.004696 -0.006488 -0.003533 
0.008149 -0.010293 -0.005617 
0.013508 -0.015856 -0.008674 
0.021598 -0.023773 -0.013047 
0.033484 -0.034715 -0.019146 
0.050477 -0.049325 -0.027419 
0.074060 -0.068009 -0.038300 
0.105675 -0.090503 -0.052096 
0.146265 -0.115104 -0.068763 
0.195352 -0.137351 -0.087438 
0.249395 -0.147901 -0.105325 
0.299067 -0.129440 -0.114818 
0.325412 -0.052822 -0.095922 
0.296865 0.126054 0.002354 
0.178240 0.463406 0.298674 
0.000000 1.000000 1.000000 
0.000000 0.000000 -0.000000 
0.000000 0.000000 0.000000 
0.000000 0.000000 0.000000 
0.000000 0.000000 0.000000 
0.000000 0.000000 0.000000 
0.000000 0.000000 0.000000 
0.000000 0.000000 0.000000 
0.000000 0.000000 0.000000 
0.000000 0.000000 0.000000 
0.000000 0.000000 0.000000 
0.000000 0.000000 0.000000 
0.000000 0.000000 -0.000000 
0.000000 0.000000 -0.000000 
0.000000 0.000000 0.000000 
0.000000 0.000000 -0.000000 
0.000000 0.000000 -0.000000 
0.000000 0.000000 0.000000 
-0.000000 0.000000 0.000000 
0.000000 0.000000 0.000000 
0.000000 0.000000 0.000000 
0.000000 0.000000 0.000000 
0.000000 0.000000 0.000000 
-0.000000 0.000000 0.000000 
0.000000 0.000000 0.000000 
0.000000 0.000000 0.000000 
0.000000 0.000000 0.000000 
0.000000 0.000000 0.000000 
0.000000 0.000000 0.000000 
0.000000 0.000000 0.000000 
0.000000 0.000000 0.000000 
0.000000 0.000000 0.000000 
0.000000 0.000000 0.000000 
0.000000 0.000000 0.000000 
0.000000 0.000000 0.000000 
-0.000000 0.000000 0.000000 
0.000000 1.000000 0.000000 
0.000000 0.000000 0.000000 
-0.000001 0.000000 0.000001 
-0.000002 0.000001 0.000003 
-0.000006 0.000002 0.000004 
-0.000010 0.000002 0.000006 
-0.000017 0.000003 0.000009 