# vtk DataFile Version 3.0
grids
ASCII
DATASET POLYDATA
POINTS 1912 float
1.542857 0.636364 0.000000
1.628572 0.636364 0.000000
1.714286 0.636364 0.000000
1.800000 0.636364 0.000000
1.885714 0.636364 0.000000
1.971429 0.636364 0.000000
2.057143 0.636364 0.000000
2.142857 0.636364 0.000000
2.228571 0.636364 0.000000
2.314286 0.636364 0.000000
2.400000 0.636364 0.000000
2.485714 0.636364 0.000000
2.571429 0.636364 0.000000
2.657143 0.636364 0.000000
2.742857 0.636364 0.000000
2.828571 0.636364 0.000000
2.914286 0.636364 0.000000
3.000000 0.636364 0.000000
1.542857 0.727273 0.000000
1.628572 0.727273 0.000000
1.714286 0.727273 0.000000
1.800000 0.727273 0.000000
1.885714 0.727273 0.000000
1.971429 0.727273 0.000000
2.057143 0.727273 0.000000
2.142857 0.727273 0.000000
2.228571 0.727273 0.000000
2.314286 0.727273 0.000000
2.400000 0.727273 0.000000
2.485714 0.727273 0.000000
2.571429 0.727273 0.000000
2.657143 0.727273 0.000000
2.742857 0.727273 0.000000
2.828571 0.727273 0.000000
2.914286 0.727273 0.000000
3.000000 0.727273 0.000000
1.542857 0.818182 0.000000
1.628572 0.818182 0.000000
1.714286 0.818182 0.000000
1.800000 0.818182 0.000000
1.885714 0.818182 0.000000
1.971429 0.818182 0.000000
2.057143 0.818182 0.000000
2.142857 0.818182 0.000000
2.228571 0.818182 0.000000
2.314286 0.818182 0.000000
2.400000 0.818182 0.000000
2.485714 0.818182 0.000000
2.571429 0.818182 0.000000
2.657143 0.818182 0.000000
2.742857 0.818182 0.000000
2.828571 0.818182 0.000000
2.914286 0.818182 0.000000
3.000000 0.818182 0.000000
1.542857 0.909091 0.000000
1.628572 0.909091 0.000000
1.714286 0.909091 0.000000
1.800000 0.909091 0.000000
1.885714 0.909091 0.000000
1.971429 0.909091 0.000000
2.057143 0.909091 0.000000
2.142857 0.909091 0.000000
2.228571 0.909091 0.000000
2.314286 0.909091 0.000000
2.400000 0.909091 0.000000
2.485714 0.909091 0.000000
2.571429 0.909091 0.000000
2.657143 0.909091 0.000000
2.742857 0.909091 0.000000
2.828571 0.909091 0.000000
2.914286 0.909091 0.000000
3.000000 0.909091 0.000000
1.542857 1.000000 0.000000
1.628572 1.000000 0.000000
1.714286 1.000000 0.000000
1.800000 1.000000 0.000000
1.885714 1.000000 0.000000
1.971429 1.000000 0.000000
2.057143 1.000000 0.000000
2.142857 1.000000 0.000000
2.228571 1.000000 0.000000
2.314286 1.000000 0.000000
2.400000 1.000000 0.000000
2.485714 1.000000 0.000000
2.571429 1.000000 0.000000
2.657143 1.000000 0.000000
2.742857 1.000000 0.000000
2.828571 1.000000 0.000000
2.914286 1.000000 0.000000
3.000000 1.000000 0.000000
1.542857 0.636364 0.090909
1.628572 0.636364 0.090909
1.714286 0.636364 0.090909
1.800000 0.636364 0.090909
1.885714 0.636364 0.090909
1.971429 0.636364 0.090909
2.057143 0.636364 0.090909
2.142857 0.636364 0.090909
2.228571 0.636364 0.090909
2.314286 0.636364 0.090909
2.400000 0.636364 0.090909
2.485714 0.636364 0.090909
2.571429 0.636364 0.090909
2.657143 0.636364 0.090909
2.742857 0.636364 0.090909
2.828571 0.636364 0.090909
2.914286 0.636364 0.090909
3.000000 0.636364 0.090909
1.542857 0.727273 0.090909
1.628572 0.727273 0.090909
1.714286 0.727273 0.090909
1.800000 0.727273 0.090909
1.885714 0.727273 0.090909
1.971429 0.727273 0.090909
2.057143 0.727273 0.090909
2.142857 0.727273 0.090909
2.228571 0.727273 0.090909
2.314286 0.727273 0.090909
2.400000 0.727273 0.090909
2.485714 0.727273 0.090909
2.571429 0.727273 0.090909
2.657143 0.727273 0.090909
2.742857 0.727273 0.090909
2.828571 0.727273 0.090909
2.914286 0.727273 0.090909
3.000000 0.727273 0.090909
1.542857 0.818182 0.090909
1.628572 0.818182 0.090909
1.714286 0.818182 0.090909
1.800000 0.818182 0.090909
1.885714 0.818182 0.090909
1.971429 0.818182 0.090909
2.057143 0.818182 0.090909
2.142857 0.818182 0.090909
2.228571 0.818182 0.090909
2.314286 0.818182 0.090909
2.400000 0.818182 0.090909
2.485714 0.818182 0.090909
2.571429 0.818182 0.090909
2.657143 0.818182 0.090909
2.742857 0.818182 0.090909
2.828571 0.818182 0.090909
2.914286 0.818182 0.090909
3.000000 0.818182 0.090909
1.542857 0.909091 0.090909
1.628572 0.909091 0.090909
1.714286 0.909091 0.090909
1.800000 0.909091 0.090909
1.885714 0.909091 0.090909
1.971429 0.909091 0.090909
2.057143 0.909091 0.090909
2.142857 0.909091 0.090909
2.228571 0.909091 0.090909
2.314286 0.909091 0.090909
2.400000 0.909091 0.090909
2.485714 0.909091 0.090909
2.571429 0.909091 0.090909
2.657143 0.909091 0.090909
2.742857 0.909091 0.090909
2.828571 0.909091 0.090909
2.914286 0.909091 0.090909
3.000000 0.909091 0.090909
1.542857 1.000000 0.090909
1.628572 1.000000 0.090909
1.714286 1.000000 0.090909
1.800000 1.000000 0.090909
1.885714 1.000000 0.090909
1.971429 1.000000 0.090909
2.057143 1.000000 0.090909
2.142857 1.000000 0.090909
2.228571 1.000000 0.090909
2.314286 1.000000 0.090909
2.400000 1.000000 0.090909
2.485714 1.000000 0.090909
2.571429 1.000000 0.090909
2.657143 1.000000 0.090909
2.742857 1.000000 0.090909
2.828571 1.000000 0.090909
2.914286 1.000000 0.090909
3.000000 1.000000 0.090909
1.542857 0.636364 0.181818
1.628572 0.636364 0.181818
1.714286 0.636364 0.181818
1.800000 0.636364 0.181818
1.885714 0.636364 0.181818
1.971429 0.636364 0.181818
2.057143 0.636364 0.181818
2.142857 0.636364 0.181818
2.228571 0.636364 0.181818
2.314286 0.636364 0.181818
2.400000 0.636364 0.181818
2.485714 0.636364 0.181818
2.571429 0.636364 0.181818
2.657143 0.636364 0.181818
2.742857 0.636364 0.181818
2.828571 0.636364 0.181818
2.914286 0.636364 0.181818
3.000000 0.636364 0.181818
1.542857 0.727273 0.181818
1.628572 0.727273 0.181818
1.714286 0.727273 0.181818
1.800000 0.727273 0.181818
1.885714 0.727273 0.181818
1.971429 0.727273 0.181818
2.057143 0.727273 0.181818
2.142857 0.727273 0.181818
2.228571 0.727273 0.181818
2.314286 0.727273 0.181818
2.400000 0.727273 0.181818
2.485714 0.727273 0.181818
2.571429 0.727273 0.181818
2.657143 0.727273 0.181818
2.742857 0.727273 0.181818
2.828571 0.727273 0.181818
2.914286 0.727273 0.181818
3.000000 0.727273 0.181818
1.542857 0.818182 0.181818
1.628572 0.818182 0.181818
1.714286 0.818182 0.181818
1.800000 0.818182 0.181818
1.885714 0.818182 0.181818
1.971429 0.818182 0.181818
2.057143 0.818182 0.181818
2.142857 0.818182 0.181818
2.228571 0.818182 0.181818
2.314286 0.818182 0.181818
2.400000 0.818182 0.181818
2.485714 0.818182 0.181818
2.571429 0.818182 0.181818
2.657143 0.818182 0.181818
2.742857 0.818182 0.181818
2.828571 0.818182 0.181818
2.914286 0.818182 0.181818
3.000000 0.818182 0.181818
1.542857 0.909091 0.181818
1.628572 0.909091 0.181818
1.714286 0.909091 0.181818
1.800000 0.909091 0.181818
1.885714 0.909091 0.181818
1.971429 0.909091 0.181818
2.057143 0.909091 0.181818
2.142857 0.909091 0.181818
2.228571 0.909091 0.181818
2.314286 0.909091 0.181818
2.400000 0.909091 0.181818
2.485714 0.909091 0.181818
2.571429 0.909091 0.181818
2.657143 0.909091 0.181818
2.742857 0.909091 0.181818
2.828571 0.909091 0.181818
2.914286 0.909091 0.181818
3.000000 0.909091 0.181818
1.542857 1.000000 0.181818
1.628572 1.000000 0.181818
1.714286 1.000000 0.181818
1.800000 1.000000 0.181818
1.885714 1.000000 0.181818
1.971429 1.000000 0.181818
2.057143 1.000000 0.181818
2.142857 1.000000 0.181818
2.228571 1.000000 0.181818
2.314286 1.000000 0.181818
2.400000 1.000000 0.181818
2.485714 1.000000 0.181818
2.571429 1.000000 0.181818
2.657143 1.000000 0.181818
2.742857 1.000000 0.181818
2.828571 1.000000 0.181818
2.914286 1.000000 0.181818
3.000000 1.000000 0.181818
1.542857 0.636364 0.272727
1.628572 0.636364 0.272727
1.714286 0.636364 0.272727
1.800000 0.636364 0.272727
1.885714 0.636364 0.272727
1.971429 0.636364 0.272727
2.057143 0.636364 0.272727
2.142857 0.636364 0.272727
2.228571 0.636364 0.272727
2.314286 0.636364 0.272727
2.400000 0.636364 0.272727
2.485714 0.636364 0.272727
2.571429 0.636364 0.272727
2.657143 0.636364 0.272727
2.742857 0.636364 0.272727
2.828571 0.636364 0.272727
2.914286 0.636364 0.272727
3.000000 0.636364 0.272727
1.542857 0.727273 0.272727
1.628572 0.727273 0.272727
1.714286 0.727273 0.272727
1.800000 0.727273 0.272727
1.885714 0.727273 0.272727
1.971429 0.727273 0.272727
2.057143 0.727273 0.272727
2.142857 0.727273 0.272727
2.228571 0.727273 0.272727
2.314286 0.727273 0.272727
2.400000 0.727273 0.272727
2.485714 0.727273 0.272727
2.571429 0.727273 0.272727
2.657143 0.727273 0.272727
2.742857 0.727273 0.272727
2.828571 0.727273 0.272727
2.914286 0.727273 0.272727
3.000000 0.727273 0.272727
1.542857 0.818182 0.272727
1.628572 0.818182 0.272727
1.714286 0.818182 0.272727
1.800000 0.818182 0.272727
1.885714 0.818182 0.272727
1.971429 0.818182 0.272727
2.057143 0.818182 0.272727
2.142857 0.818182 0.272727
2.228571 0.818182 0.272727
2.314286 0.818182 0.272727
2.400000 0.818182 0.272727
2.485714 0.818182 0.272727
2.571429 0.818182 0.272727
2.657143 0.818182 0.272727
2.742857 0.818182 0.272727
2.828571 0.818182 0.272727
2.914286 0.818182 0.272727
3.000000 0.818182 0.272727
1.542857 0.909091 0.272727
1.628572 0.909091 0.272727
1.714286 0.909091 0.272727
1.800000 0.909091 0.272727
1.885714 0.909091 0.272727
1.971429 0.909091 0.272727
2.057143 0.909091 0.272727
2.142857 0.909091 0.272727
2.228571 0.909091 0.272727
2.314286 0.909091 0.272727
2.400000 0.909091 0.272727
2.485714 0.909091 0.272727
2.571429 0.909091 0.272727
2.657143 0.909091 0.272727
2.742857 0.909091 0.272727
2.828571 0.909091 0.272727
2.914286 0.909091 0.272727
3.000000 0.909091 0.272727
1.542857 1.000000 0.272727
1.628572 1.000000 0.272727
1.714286 1.000000 0.272727
1.800000 1.000000 0.272727
1.885714 1.000000 0.272727
1.971429 1.000000 0.272727
2.057143 1.000000 0.272727
2.142857 1.000000 0.272727
2.228571 1.000000 0.272727
2.314286 1.000000 0.272727
2.400000 1.000000 0.272727
2.485714 1.000000 0.272727
2.571429 1.000000 0.272727
2.657143 1.000000 0.272727
2.742857 1.000000 0.272727
2.828571 1.000000 0.272727
2.914286 1.000000 0.272727
3.000000 1.000000 0.272727
1.542857 0.636364 0.363636
1.628572 0.636364 0.363636
1.714286 0.636364 0.363636
1.800000 0.636364 0.363636
1.885714 0.636364 0.363636
1.971429 0.636364 0.363636
2.057143 0.636364 0.363636
[...]
POINT_DATA 1912
VECTORS attr0 float
0.000000 0.000000 0.000000 
-0.000000 0.000000 0.000000 
0.000000 -0.000000 0.000000 
-0.000000 0.000000 0.000000 
0.000000 0.000000 0.000000 
0.000000 0.000000 0.000000 
0.000000 0.000000 0.000000 
0.000000 0.000000 0.000000 
0.000000 0.000000 0.000000 
0.000000 0.000000 0.000000 
0.000000 0.000000 0.000000 
0.000000 0.000000 0.000000 
0.000000 0.000000 0.000000 
0.000000 0.000000 0.000000 
0.000000 0.000000 0.000000 
0.000000 0.000000 0.000000 
0.000000 0.000000 0.000000 
0.000000 0.000000 1.000000 
0.000000 0.000000 0.000000 
0.000000 0.000000 0.000000 
0.000000 0.000000 0.000000 
0.000000 0.000000 0.000000 
-0.000000 0.000000 0.000000 
0.000000 0.000000 0.000000 
0.000000 0.000000 0.000000 
0.000000 0.000000 0.000000 
0.000000 0.000000 0.000000 
0.000000 0.000000 0.000000 
0.000000 0.000000 0.000000 
0.000000 0.000000 0.000000 
0.000000 0.000000 0.000000 
0.000000 0.000000 0.000000 
0.000000 0.000000 0.000000 
0.000000 0.000000 0.000000 
0.000000 0.000000 0.000000 
0.000000 0.000000 1.000000 
-0.000000 -0.000000 0.000000 
-0.000000 0.000000 0.000000 
0.000000 0.000000 0.000000 
0.000000 0.000000 0.000000 
0.000000 0.000000 0.000000 
0.000000 0.000000 0.000000 
-0.000000 0.000000 0.000000 
-0.000000 0.000000 0.000000 
0.000000 0.000000 0.000000 
0.000000 0.000000 0.000000 
0.000000 0.000000 0.000000 
0.000000 0.000000 0.000000 
0.000000 0.000000 0.000000 
0.000000 0.000000 0.000000 
0.000000 0.000000 0.000000 
0.000000 0.000000 0.000000 
0.000000 0.000000 0.000000 
0.000000 0.000000 1.000000 
-0.000000 0.000000 0.000000 
-0.000000 0.000000 0.000000 
0.000000 0.000000 0.000000 
-0.000000 0.000000 0.000000 
0.000000 -0.000000 0.000000 
-0.000000 -0.000000 0.000000 
0.000000 -0.000000 0.000000 
-0.000000 0.000000 0.000000 
0.000000 0.000000 0.000000 
-0.000000 0.000000 0.000000 
-0.000000 0.000000 0.000000 
-0.000000 0.000000 0.000000 
-0.000000 0.000000 0.000000 
-0.000000 0.000000 0.000000 
-0.000000 0.000000 0.000000 
-0.000000 0.000000 0.000000 
-0.000000 0.000000 0.000000 
0.000000 0.000000 1.000000 
0.000000 0.000000 0.000000 
0.000000 0.000000 0.000000 
0.000000 0.000000 0.000000 
0.000000 0.000000 0.000000 
0.000000 0.000000 0.000000 
0.000000 0.000000 0.000000 
0.000000 0.000000 0.000000 
0.000000 0.000000 0.000000 
0.000000 0.000000 0.000000 
0.000000 0.000000 0.000000 
0.000000 0.000000 0.000000 
0.000000 0.000000 0.000000 
0.000000 0.000000 0.000000 
0.000000 0.000000 0.000000 
0.000000 0.000000 0.000000 
0.000000 0.000000 0.000000 
0.000000 0.000000 0.000000 
0.000000 0.000000 0.000000 
0.000030 -0.000780 -0.000264 
0.000254 -0.001438 -0.000487 
0.000676 -0.002490 -0.000846 
0.001415 -0.004121 -0.001402 
0.002650 -0.006579 -0.002243 
0.004641 -0.010186 -0.003485 
0.007757 -0.015332 -0.005274 
0.012518 -0.022452 -0.007794 
0.019642 -0.031946 -0.011269 
0.030123 -0.044005 -0.015967 
0.045322 -0.058250 -0.022213 
0.067079 -0.073006 -0.030391 
0.097687 -0.083901 -0.040834 
0.139202 -0.081161 -0.053004 
0.190367 -0.044336 -0.061348 
0.236549 0.068464 -0.037228 
0.222930 0.345913 0.144966 
0.000000 1.000000 1.000000 
-0.000082 -0.000405 -0.000177 
-0.000022 -0.000806 -0.000349 
0.000115 -0.001468 -0.000631 
0.000384 -0.002518 -0.001078 
0.000868 -0.004138 -0.001767 
0.001695 -0.006569 -0.002801 
0.003057 -0.010121 -0.004319 
0.005240 -0.015169 -0.006498 
0.008677 -0.022130 -0.009565 
0.014032 -0.031381 -0.013808 
0.022344 -0.043064 -0.019602 
0.035274 -0.056611 -0.027418 
0.055388 -0.069601 -0.037721 
0.086151 -0.075010 -0.050111 
0.130065 -0.054579 -0.059060 
0.179882 0.036650 -0.035546 
0.189402 0.305228 0.146859 
0.000000 1.000000 1.000000 
-0.000066 -0.000097 -0.000064 
-0.000070 -0.000258 -0.000161 
-0.000060 -0.000540 -0.000331 
-0.000022 -0.001010 -0.000612 
0.000066 -0.001768 -0.001062 
0.000243 -0.002949 -0.001763 
0.000568 -0.004746 -0.002827 
0.001137 -0.007411 -0.004409 
0.002110 -0.011277 -0.006721 
0.003756 -0.016765 -0.010059 
0.006551 -0.024364 -0.014846 
0.011363 -0.034511 -0.021691 
0.019789 -0.047062 -0.031340 
0.034586 -0.059345 -0.043925 
0.059591 -0.059554 -0.054741 
0.095822 -0.006121 -0.035362 
0.120411 0.230394 0.142874 
0.000000 1.000000 1.000000 
-0.000000 0.000035 0.000035 
-0.000000 0.000018 0.000018 
-0.000000 -0.000023 -0.000023 
-0.000000 -0.000105 -0.000105 
-0.000000 -0.000257 -0.000257 
-0.000000 -0.000520 -0.000520 
-0.000000 -0.000958 -0.000958 
-0.000000 -0.001665 -0.001665 
-0.000000 -0.002788 -0.002788 
-0.000000 -0.004553 -0.004553 
-0.000000 -0.007334 -0.007334 
-0.000000 -0.011752 -0.011752 
-0.000000 -0.018785 -0.018785 
0.000000 -0.029461 -0.029461 
0.000000 -0.041830 -0.041830 
0.000000 -0.034187 -0.034187 
0.000000 0.115539 0.115539 
0.000000 1.000000 1.000000 
0.000000 0.000000 0.000000 
0.000000 0.000000 -0.000000 
-0.000000 0.000000 0.000000 
0.000000 0.000000 0.000000 
-0.000000 0.000000 0.000000 
0.000000 0.000000 -0.000000 
-0.000000 0.000000 -0.000000 
0.000000 0.000000 -0.000000 
-0.000000 0.000000 -0.000000 
0.000000 0.000000 0.000000 
0.000000 0.000000 0.000000 
0.000000 0.000000 0.000000 
0.000000 0.000000 0.000000 
0.000000 0.000000 0.000000 
0.000000 0.000000 0.000000 
0.000000 0.000000 0.000000 
0.000000 0.000000 0.000000 
0.000000 1.000000 0.000000 
0.000276 -0.001679 -0.001031 
0.000690 -0.002954 -0.001810 
0.001409 -0.004947 -0.003027 
0.002600 -0.007977 -0.004877 
0.004507 -0.012461 -0.007618 
0.007469 -0.018921 -0.011576 
0.011948 -0.027964 -0.017148 
0.018558 -0.040214 -0.024777 
0.028086 -0.056151 -0.034912 
0.041497 -0.075776 -0.047891 
0.059886 -0.097963 -0.063730 
0.084281 -0.119273 -0.081640 
0.115038 -0.131858 -0.098874 
0.150198 -0.119955 -0.107773 
0.181609 -0.054651 -0.088122 
0.187856 0.111985 0.011216 
0.130361 0.446409 0.307485 
0.000000 1.000000 1.000000 
0.000029 -0.001027 -0.000766 
0.000150 -0.001870 -0.001390 
0.000373 -0.003211 -0.002381 
0.000761 -0.005281 -0.003909 
0.001405 -0.008388 -0.006202 
0.002438 -0.012934 -0.009558 
0.004049 -0.019406 -0.014347 
0.006505 -0.028357 -0.021003 
0.010178 -0.040322 -0.029993 
0.015584 -0.055636 -0.041736 
0.023431 -0.074040 -0.056416 
0.034649 -0.093833 -0.073541 
0.050264 -0.110092 -0.090800 
0.070718 -0.110901 -0.101020 
0.093539 -0.069847 -0.084193 
0.107521 0.066675 0.011651 
0.084507 0.390974 0.306303 
0.000000 1.000000 1.000000 
-0.000000 -0.000425 -0.000425 
-0.000000 -0.000831 -0.000831 
-0.000000 -0.001496 -0.001496 
-0.000000 -0.002547 -0.002547 
-0.000000 -0.004163 -0.004163 
-0.000000 -0.006581 -0.006581 
-0.000000 -0.010111 -0.010111 
-0.000000 -0.015139 -0.015139 
-0.000000 -0.022119 -0.022119 
-0.000000 -0.031537 -0.031537 
-0.000000 -0.043799 -0.043799 
-0.000000 -0.058900 -0.058900 
-0.000000 -0.075447 -0.075447 
-0.000000 -0.087763 -0.087763 
-0.000000 -0.077695 -0.077695 
0.000000 0.006331 0.006331 
0.000000 0.291317 0.291317 
0.000000 1.000000 1.000000 
0.000066 -0.000064 -0.000097 
0.000070 -0.000161 -0.000258 
0.000060 -0.000331 -0.000540 
0.000022 -0.000612 -0.001010 
-0.000066 -0.001062 -0.001768 
-0.000243 -0.001763 -0.002949 
-0.000568 -0.002827 -0.004746 
-0.001137 -0.004409 -0.007411 
-0.002110 -0.006721 -0.011277 
-0.003756 -0.010059 -0.016765 
-0.006551 -0.014846 -0.024364 
-0.011363 -0.021691 -0.034511 
-0.019789 -0.031340 -0.047062 
-0.034586 -0.043925 -0.059345 
-0.059591 -0.054741 -0.059554 
-0.095822 -0.035362 -0.006121 
-0.120411 0.142874 0.230394 
0.000000 1.000000 1.000000 
0.000000 0.000000 -0.000000 
0.000000 0.000000 0.000000 
-0.000000 0.000000 -0.000000 
-0.000000 0.000000 -0.000000 
0.000000 0.000000 0.000000 
-0.000000 0.000000 0.000000 
0.000000 0.000000 0.000000 
0.000000 0.000000 0.000000 
0.000000 0.000000 0.000000 
-0.000000 0.000000 0.000000 
0.000000 0.000000 0.000000 
0.000000 0.000000 0.000000 
0.000000 0.000000 0.000000 
0.000000 0.000000 0.000000 
0.000000 0.000000 0.000000 
0.000000 0.000000 0.000000 
-0.000000 0.000000 0.000000 
0.000000 1.000000 0.000000 
0.000325 -0.002479 -0.002074 
0.000683 -0.004247 -0.003550 
0.001281 -0.006971 -0.005825 
0.002243 -0.011058 -0.009237 
0.003745 -0.017029 -0.014226 
0.006022 -0.025519 -0.021327 
0.009387 -0.037238 -0.031154 
0.014226 -0.052866 -0.044327 
0.020994 -0.072824 -0.061310 
0.030163 -0.096824 -0.082106 
0.042104 -0.123061 -0.105672 
0.056820 -0.146808 -0.128843 
0.073402 -0.158149 -0.144350 
0.089008 -0.138617 -0.137200 
0.097293 -0.057197 -0.078522 
0.087379 0.131519 0.082707 
0.048967 0.478165 0.421763 
0.000000 1.000000 1.000000 
-0.000000 -0.001622 -0.001622 
-0.000000 -0.002837 -0.002837 
-0.000000 -0.004730 -0.004730 
-0.000000 -0.007602 -0.007602 
-0.000000 -0.011844 -0.011844 
-0.000000 -0.017946 -0.017946 
-0.000000 -0.026485 -0.026485 
-0.000000 -0.038073 -0.038073 
-0.000000 -0.053225 -0.053225 
-0.000000 -0.072103 -0.072103 
-0.000000 -0.093985 -0.093985 
-0.000000 -0.116250 -0.116250 
-0.000000 -0.132387 -0.132387 
0.000000 -0.128201 -0.128201 
-0.000000 -0.075050 -0.075050 
0.000000 0.079688 0.079688 
0.000000 0.415989 0.415989 
0.000000 1.000000 1.000000 
-0.000029 -0.000766 -0.001027 
-0.000150 -0.001390 -0.001870 
-0.000373 -0.002381 -0.003211 
-0.000761 -0.003909 -0.005281 
-0.001405 -0.006202 -0.008388 
-0.002438 -0.009558 -0.012934 
-0.004049 -0.014347 -0.019406 
-0.006505 -0.021003 -0.028357 
-0.010178 -0.029993 -0.040322 
-0.015584 -0.041736 -0.055636 
-0.023431 -0.056416 -0.074040 
-0.034649 -0.073541 -0.093833 
-0.050264 -0.090800 -0.110092 
-0.070718 -0.101020 -0.110901 
-0.093539 -0.084193 -0.069847 
-0.107521 0.011651 0.066675 
-0.084507 0.306303 0.390974 
0.000000 1.000000 1.000000 
0.000082 -0.000177 -0.000405 
0.000022 -0.000349 -0.000806 
-0.000115 -0.000631 -0.001468 
-0.000384 -0.001078 -0.002518 
-0.000868 -0.001767 -0.004138 
-0.001695 -0.002801 -0.006569 
-0.003057 -0.004319 -0.010121 
-0.005240 -0.006498 -0.015169 
-0.008677 -0.009565 -0.022130 
-0.014032 -0.013808 -0.031381 
-0.022344 -0.019602 -0.043064 
-0.035274 -0.027418 -0.056611 
-0.055388 -0.037721 -0.069601 
-0.086151 -0.050111 -0.075010 
-0.130065 -0.059060 -0.054579 
-0.179882 -0.035546 0.036650 
-0.189402 0.146859 0.305228 
0.000000 1.000000 1.000000 
0.000000 0.000000 0.000000 
-0.000000 0.000000 -0.000000 
-0.000000 0.000000 0.000000 
0.000000 0.000000 0.000000 
-0.000000 0.000000 0.000000 
0.000000 0.000000 -0.000000 
0.000000 0.000000 -0.000000 
0.000000 0.000000 0.000000 
0.000000 0.000000 0.000000 
0.000000 0.000000 0.000000 
0.000000 0.000000 0.000000 
0.000000 0.000000 0.000000 
0.000000 0.000000 0.000000 
0.000000 0.000000 0.000000 
0.000000 0.000000 0.000000 
0.000000 0.000000 0.000000 
0.000000 0.000000 0.000000 
0.000000 1.000000 0.000000 
-0.000000 -0.003067 -0.003067 
-0.000000 -0.005174 -0.005174 
-0.000000 -0.008391 -0.008391 
-0.000000 -0.013176 -0.013176 
-0.000000 -0.020108 -0.020108 
-0.000000 -0.029879 -0.029879 
-0.000000 -0.043242 -0.043242 
-0.000000 -0.060876 -0.060876 
-0.000000 -0.083116 -0.083116 
-0.000000 -0.109443 -0.109443 
-0.000000 -0.137596 -0.137596 
-0.000000 -0.162106 -0.162106 
-0.000000 -0.172057 -0.172057 
-0.000000 -0.148013 -0.148013 
0.000000 -0.058873 -0.058873 
-0.000000 0.138359 0.138359 
0.000000 0.487902 0.487902 
0.000000 1.000000 1.000000 
-0.000325 -0.002074 -0.002479 
-0.000683 -0.003550 -0.004247 
-0.001281 -0.005825 -0.006971 
-0.002243 -0.009237 -0.011058 
-0.003745 -0.014226 -0.017029 
-0.006022 -0.021327 -0.025519 
-0.009387 -0.031154 -0.037238 
-0.014226 -0.044327 -0.052866 
-0.020994 -0.061310 -0.072824 
-0.030163 -0.082106 -0.096824 
-0.042104 -0.105672 -0.123061 
-0.056820 -0.128843 -0.146808 
-0.073402 -0.144350 -0.158149 
-0.089008 -0.137200 -0.138617 
-0.097293 -0.078522 -0.057197 
-0.087379 0.082707 0.131519 
-0.048967 0.421763 0.478165 
0.000000 1.000000 1.000000 
-0.000276 -0.001031 -0.001679 
-0.000690 -0.001810 -0.002954 
-0.001409 -0.003027 -0.004947 
-0.002600 -0.004877 -0.007977 
-0.004507 -0.007618 -0.012461 
-0.007469 -0.011576 -0.018921 
-0.011948 -0.017148 -0.027964 
-0.018558 -0.024777 -0.040214 
-0.028086 -0.034912 -0.056151 
-0.041497 -0.047891 -0.075776 
-0.059886 -0.063730 -0.097963 
-0.084281 -0.081640 -0.119273 
-0.115038 -0.098874 -0.131858 
-0.150198 -0.107773 -0.119955 
-0.181609 -0.088122 -0.054651 
-0.187856 0.011216 0.111985 
-0.130361 0.307485 0.446409 
0.000000 1.000000 1.000000 
-0.000030 -0.000264 -0.000780 
-0.000254 -0.000487 -0.001438 
-0.000676 -0.000846 -0.002490 
-0.001415 -0.001402 -0.004121 
-0.002650 -0.002243 -0.006579 
-0.004641 -0.003485 -0.010186 
-0.007757 -0.005274 -0.015332 
-0.012518 -0.007794 -0.022452 
-0.019642 -0.011269 -0.031946 
-0.030123 -0.015967 -0.044005 
-0.045322 -0.022213 -0.058250 
-0.067079 -0.030391 -0.073006 
-0.097687 -0.040834 -0.083901 
-0.139202 -0.053004 -0.081161 
-0.190367 -0.061348 -0.044336 
-0.236549 -0.037228 0.068464 
-0.222930 0.144966 0.345913 
0.000000 1.000000 1.000000 
-0.000000 0.000000 0.000000 
0.000000 0.000000 0.000000 
-0.000000 0.000000 0.000000 
-0.000000 0.000000 0.000000 
0.000000 0.000000 0.000000 
0.000000 0.000000 0.000000 
0.000000 0.000000 0.000000 
0.000000 0.000000 0.000000 
0.000000 0.000000 0.000000 
-0.000000 0.000000 0.000000 
0.000000 0.000000 0.000000 
-0.000000 0.000000 0.000000 
-0.000000 0.000000 0.000000 
0.000000 0.000000 0.000000 
0.000000 0.000000 0.000000 
0.000000 0.000000 0.000000 
-0.000000 0.000000 0.000000 
0.000000 1.000000 0.000000 
-0.000647 -0.003399 -0.003701 
-0.001231 -0.005687 -0.006193 
-0.002176 -0.009165 -0.009981 
-0.003658 -0.014315 -0.015589 
-0.005913 -0.021742 -0.023673 
-0.009251 -0.032161 -0.035005 
-0.014056 -0.046340 -0.050401 
-0.020766 -0.064949 -0.070546 
-0.029808 -0.088272 -0.095652 
-0.041467 -0.115669 -0.124835 
-0.055618 -0.144668 -0.155062 
-0.071288 -0.169491 -0.179540 
-0.086019 -0.178856 -0.185483 
-0.095205 -0.153080 -0.151656 
-0.092072 -0.061244 -0.047111 
-0.070100 0.138655 0.165485 
-0.031042 0.489162 0.516222 
0.000000 1.000000 1.000000 
-0.000911 -0.002342 -0.003063 
-0.001806 -0.003965 -0.005187 
-0.003276 -0.006450 -0.008439 
-0.005608 -0.010156 -0.013287 
-0.009199 -0.015542 -0.020326 
-0.014576 -0.023167 -0.030265 
-0.022413 -0.033658 -0.043879 
-0.033514 -0.047628 -0.061860 
-0.048750 -0.065512 -0.084525 
-0.068882 -0.087230 -0.111265 
-0.094199 -0.111592 -0.139579 
-0.123837 -0.135219 -0.163522 
-0.154616 -0.150588 -0.171431 
-0.179351 -0.142536 -0.143102 
-0.185185 -0.082313 -0.047528 
-0.154770 0.080488 0.155575 
-0.079083 0.420400 0.503732 
0.000000 1.000000 1.000000 
-0.000724 -0.001193 -0.002161 
-0.001566 -0.002061 -0.003731 
-0.002983 -0.003406 -0.006164 
-0.005278 -0.005435 -0.009829 
-0.008877 -0.008420 -0.015207 
-0.014362 -0.012699 -0.022884 
-0.022503 -0.018680 -0.033526 
-0.034270 -0.026807 -0.047774 
-0.050820 -0.037511 -0.066033 
-0.073395 -0.051093 -0.088048 
-0.103083 -0.067493 -0.112122 
-0.140263 -0.085811 -0.133792 
-0.183463 -0.103184 -0.143695 
-0.227081 -0.111897 -0.124491 
-0.257297 -0.091866 -0.047081 
-0.246724 0.007692 0.132257 
-0.157174 0.304092 0.468530 
0.000000 1.000000 1.000000 
-0.000269 -0.000317 -0.001084 
-0.000739 -0.000571 -0.001931 
-0.001568 -0.000972 -0.003263 
-0.002957 -0.001589 -0.005302 
-0.005199 -0.002513 -0.008335 
-0.008704 -0.003863 -0.012729 
-0.014036 -0.005792 -0.018914 
-0.021947 -0.008484 -0.027341 
-0.033403 -0.012158 -0.038370 
-0.049603 -0.017072 -0.052036 
-0.071956 -0.023530 -0.067598 
-0.101962 -0.031890 -0.082712 
-0.140830 -0.042465 -0.091982 
-0.188331 -0.054743 -0.084486 
-0.239469 -0.063310 -0.039454 
-0.275389 -0.039773 0.082403 
-0.240953 0.141726 0.361827 
0.000000 1.000000 1.000000 
0.000000 0.000000 0.000000 
-0.000000 0.000000 0.000000 
0.000000 0.000000 0.000000 
0.000000 0.000000 0.000000 
0.000000 0.000000 0.000000 
0.000000 0.000000 0.000000 
0.000000 0.000000 0.000000 
0.000000 0.000000 0.000000 
-0.000000 0.000000 0.000000 
0.000000 0.000000 0.000000 
0.000000 0.000000 0.000000 
0.000000 0.000000 0.000000 
0.000000 0.000000 0.000000 
0.000000 0.000000 0.000000 
-0.000000 0.000000 0.000000 
-0.000000 0.000000 0.000000 
-0.000000 0.000000 0.000000 
0.000000 1.000000 0.000000 
-0.001394 -0.003463 -0.003775 
-0.002624 -0.005782 -0.006303 
-0.004607 -0.009302 -0.010140 
-0.007703 -0.014509 -0.015814 
-0.012400 -0.022011 -0.023986 
-0.019331 -0.032527 -0.035430 
-0.029273 -0.046826 -0.050965 
-0.043097 -0.065581 -0.071279 
-0.061628 -0.089079 -0.096586 
-0.085347 -0.116687 -0.126005 
-0.113825 -0.145941 -0.156514 
-0.144805 -0.171088 -0.181337 
-0.172962 -0.180884 -0.187719 
-0.188778 -0.155678 -0.154449 
-0.179087 -0.064510 -0.050520 
-0.132766 0.134913 0.161697 
-0.056551 0.485969 0.513090 
0.000000 1.000000 1.000000 
-0.001574 -0.002419 -0.003182 
-0.003047 -0.004078 -0.005365 
-0.005446 -0.006615 -0.008699 
-0.009228 -0.010391 -0.013657 
-0.015015 -0.015869 -0.020840 
-0.023631 -0.023613 -0.030966 
-0.036108 -0.034251 -0.044813 
-0.053655 -0.048404 -0.063075 
-0.077520 -0.066507 -0.086073 
-0.108670 -0.088488 -0.113196 
-0.147158 -0.113175 -0.141950 
-0.191002 -0.137222 -0.166409 
-0.234444 -0.153169 -0.174943 
-0.265786 -0.145925 -0.147380 
-0.266156 -0.086742 -0.052646 
-0.213625 0.075137 0.149951 
-0.103359 0.415522 0.499085 
0.000000 1.000000 1.000000 
-0.001240 -0.001251 -0.002308 
-0.002539 -0.002148 -0.003952 
-0.004696 -0.003533 -0.006488 
-0.008149 -0.005617 -0.010293 
-0.013508 -0.008674 -0.015856 
-0.021598 -0.013047 -0.023773 
-0.033484 -0.019146 -0.034715 
-0.050477 -0.027419 -0.049325 
-0.074060 -0.038300 -0.068009 
-0.105675 -0.052096 -0.090503 
-0.146265 -0.068763 -0.115104 
-0.195352 -0.087438 -0.137351 
-0.249395 -0.105325 -0.147901 
-0.299066 -0.114818 -0.129440 
-0.325412 -0.095922 -0.052822 
-0.296865 0.002354 0.126054 
-0.178240 0.298674 0.463406 
0.000000 1.000000 1.000000 
-0.000562 -0.000340 -0.001209 
-0.001303 -0.000605 -0.002120 
-0.002572 -0.001023 -0.003544 
-0.004652 -0.001661 -0.005706 
-0.007951 -0.002615 -0.008904 
-0.013028 -0.004004 -0.013512 
-0.020633 -0.005981 -0.019966 
-0.031734 -0.008734 -0.028719 
-0.047512 -0.012482 -0.040125 
-0.069314 -0.017487 -0.054209 
-0.098490 -0.024059 -0.070211 
-0.136051 -0.032576 -0.085769 
-0.181953 -0.043395 -0.095481 
-0.233628 -0.056086 -0.088441 
-0.282751 -0.065358 -0.043868 
-0.307581 -0.042849 0.077730 
-0.254620 0.138020 0.357926 
0.000000 1.000000 1.000000 
0.000000 0.000000 -0.000000 
-0.000000 0.000000 0.000000 
-0.000000 0.000000 0.000000 
-0.000000 0.000000 0.000000 
0.000000 0.000000 0.000000 
-0.000000 0.000000 0.000000 
-0.000000 0.000000 0.000000 
0.000000 0.000000 0.000000 
0.000000 0.000000 0.000000 
-0.000000 0.000000 0.000000 
-0.000000 0.000000 0.000000 
-0.000000 0.000000 0.000000 
-0.000000 0.000000 0.000000 
0.000000 0.000000 0.000000 
0.000000 0.000000 0.000000 
0.000000 0.000000 0.000000 
0.000000 0.000000 0.000000 
0.000000 1.000000 0.000000 
0.000000 0.000000 0.000000 
0.000000 -0.000000 0.000000 
0.000000 -0.000000 0.000000 
0.000000 -0.000000 0.000000 
0.000000 -0.000000 0.000000 
0.000000 0.000000 0.000000 
0.000000 -0.000000 0.000000 
0.000000 0.000000 0.000000 
0.000000 0.000000 0.000000 
0.000000 -0.000000 0.000000 
0.000000 0.000000 0.000000 
0.000000 -0.000000 0.000000 
0.000000 0.000000 0.000000 
0.000000 0.000000 0.000000 
0.000000 0.000000 0.000000 
-0.000000 0.000000 0.000000 
0.000000 0.000000 0.000000 
-0.000000 0.000000 0.000000 
0.000000 -0.000000 0.000000 
0.000000 -0.000000 0.000000 
0.000000 -0.000000 0.000000 
0.000000 -0.000000 0.000000 
0.000000 -0.000000 0.000000 
0.000000 -0.000000 0.000000 
0.000000 -0.000000 0.000000 
-0.000000 -0.000000 0.000000 
0.000000 -0.000000 0.000000 
-0.000000 0.000000 0.000000 
0.000000 -0.000000 0.000000 
0.000000 0.000000 0.000000 
-0.000000 -0.000000 0.000000 
0.000000 0.000000 0.000000 
-0.000000 0.000000 0.000000 
0.000000 0.000000 0.000000 
-0.000000 0.000000 0.000000 
0.000000 -0.000000 0.000000 
0.000000 0.000000 0.000000 
-0.000000 0.000000 0.000000 
-0.000000 0.000000 0.000000 
-0.000000 0.000000 0.000000 
-0.000000 0.000000 0.000000 
-0.000000 0.000000 0.000000 