# vtk DataFile Version 3.0
grids
ASCII
DATASET POLYDATA
POINTS 2592 float
0.000000 0.000000 0.000000
0.085714 0.000000 0.000000
0.171429 0.000000 0.000000
0.257143 0.000000 0.000000
0.342857 0.000000 0.000000
0.428571 0.000000 0.000000
0.514286 0.000000 0.000000
0.600000 0.000000 0.000000
0.685714 0.000000 0.000000
0.771429 0.000000 0.000000
0.857143 0.000000 0.000000
0.942857 0.000000 0.000000
1.028571 0.000000 0.000000
1.114286 0.000000 0.000000
1.200000 0.000000 0.000000
1.285714 0.000000 0.000000
1.371429 0.000000 0.000000
1.457143 0.000000 0.000000
1.542857 0.000000 0.000000
1.628572 0.000000 0.000000
1.714286 0.000000 0.000000
1.800000 0.000000 0.000000
1.885714 0.000000 0.000000
1.971429 0.000000 0.000000
2.057143 0.000000 0.000000
2.142857 0.000000 0.000000
2.228571 0.000000 0.000000
2.314286 0.000000 0.000000
2.400000 0.000000 0.000000
2.485714 0.000000 0.000000
2.571429 0.000000 0.000000
2.657143 0.000000 0.000000
2.742857 0.000000 0.000000
2.828572 0.000000 0.000000
2.914286 0.000000 0.000000
3.000000 0.000000 0.000000
0.000000 0.090909 0.000000
0.085714 0.090909 0.000000
0.171429 0.090909 0.000000
0.257143 0.090909 0.000000
0.342857 0.090909 0.000000
0.428571 0.090909 0.000000
0.514286 0.090909 0.000000
0.600000 0.090909 0.000000
0.685714 0.090909 0.000000
0.771429 0.090909 0.000000
0.857143 0.090909 0.000000
0.942857 0.090909 0.000000
1.028571 0.090909 0.000000
1.114286 0.090909 0.000000
1.200000 0.090909 0.000000
1.285714 0.090909 0.000000
1.371429 0.090909 0.000000
1.457143 0.090909 0.000000
1.542857 0.090909 0.000000
1.628572 0.090909 0.000000
1.714286 0.090909 0.000000
1.800000 0.090909 0.000000
1.885714 0.090909 0.000000
1.971429 0.090909 0.000000
2.057143 0.090909 0.000000
2.142857 0.090909 0.000000
2.228571 0.090909 0.000000
2.314286 0.090909 0.000000
2.400000 0.090909 0.000000
2.485714 0.090909 0.000000
2.571429 0.090909 0.000000
2.657143 0.090909 0.000000
2.742857 0.090909 0.000000
2.828572 0.090909 0.000000
2.914286 0.090909 0.000000
3.000000 0.090909 0.000000
0.000000 0.181818 0.000000
0.085714 0.181818 0.000000
0.171429 0.181818 0.000000
0.257143 0.181818 0.000000
0.342857 0.181818 0.000000
0.428571 0.181818 0.000000
0.514286 0.181818 0.000000
0.600000 0.181818 0.000000
0.685714 0.181818 0.000000
0.771429 0.181818 0.000000
0.857143 0.181818 0.000000
0.942857 0.181818 0.000000
1.028571 0.181818 0.000000
1.114286 0.181818 0.000000
1.200000 0.181818 0.000000
1.285714 0.181818 0.000000
1.371429 0.181818 0.000000
1.457143 0.181818 0.000000
1.542857 0.181818 0.000000
1.628572 0.181818 0.000000
1.714286 0.181818 0.000000
1.800000 0.181818 0.000000
1.885714 0.181818 0.000000
1.971429 0.181818 0.000000
2.057143 0.181818 0.000000
2.142857 0.181818 0.000000
2.228571 0.181818 0.000000
2.314286 0.181818 0.000000
2.400000 0.181818 0.000000
2.485714 0.181818 0.000000
2.571429 0.181818 0.000000
2.657143 0.181818 0.000000
2.742857 0.181818 0.000000
2.828572 0.181818 0.000000
2.914286 0.181818 0.000000
3.000000 0.181818 0.000000
0.000000 0.272727 0.000000
0.085714 0.272727 0.000000
0.171429 0.272727 0.000000
0.257143 0.272727 0.000000
0.342857 0.272727 0.000000
0.428571 0.272727 0.000000
0.514286 0.272727 0.000000
0.600000 0.272727 0.000000
0.685714 0.272727 0.000000
0.771429 0.272727 0.000000
0.857143 0.272727 0.000000
0.942857 0.272727 0.000000
1.028571 0.272727 0.000000
1.114286 0.272727 0.000000
1.200000 0.272727 0.000000
1.285714 0.272727 0.000000
1.371429 0.272727 0.000000
1.457143 0.272727 0.000000
1.542857 0.272727 0.000000
1.628572 0.272727 0.000000
1.714286 0.272727 0.000000
1.800000 0.272727 0.000000
1.885714 0.272727 0.000000
1.971429 0.272727 0.000000
2.057143 0.272727 0.000000
2.142857 0.272727 0.000000
2.228571 0.272727 0.000000
2.314286 0.272727 0.000000
2.400000 0.272727 0.000000
2.485714 0.272727 0.000000
2.571429 0.272727 0.000000
2.657143 0.272727 0.000000
2.742857 0.272727 0.000000
2.828572 0.272727 0.000000
2.914286 0.272727 0.000000
3.000000 0.272727 0.000000
0.000000 0.363636 0.000000
0.085714 0.363636 0.000000
0.171429 0.363636 0.000000
0.257143 0.363636 0.000000
0.342857 0.363636 0.000000
0.428571 0.363636 0.000000
0.514286 0.363636 0.000000
0.600000 0.363636 0.000000
0.685714 0.363636 0.000000
0.771429 0.363636 0.000000
0.857143 0.363636 0.000000
0.942857 0.363636 0.000000
1.028571 0.363636 0.000000
1.114286 0.363636 0.000000
1.200000 0.363636 0.000000
1.285714 0.363636 0.000000
1.371429 0.363636 0.000000
1.457143 0.363636 0.000000
1.542857 0.363636 0.000000
1.628572 0.363636 0.000000
1.714286 0.363636 0.000000
1.800000 0.363636 0.000000
1.885714 0.363636 0.000000
1.971429 0.363636 0.000000
2.057143 0.363636 0.000000
2.142857 0.363636 0.000000
2.228571 0.363636 0.000000
2.314286 0.363636 0.000000
2.400000 0.363636 0.000000
2.485714 0.363636 0.000000
2.571429 0.363636 0.000000
2.657143 0.363636 0.000000
2.742857 0.363636 0.000000
2.828572 0.363636 0.000000
2.914286 0.363636 0.000000
3.000000 0.363636 0.000000
0.000000 0.454545 0.000000
0.085714 0.454545 0.000000
0.171429 0.454545 0.000000
0.257143 0.454545 0.000000
0.342857 0.454545 0.000000
0.428571 0.454545 0.000000
0.514286 0.454545 0.000000
0.600000 0.454545 0.000000
0.685714 0.454545 0.000000
0.771429 0.454545 0.000000
0.857143 0.454545 0.000000
0.942857 0.454545 0.000000
1.028571 0.454545 0.000000
1.114286 0.454545 0.000000
1.200000 0.454545 0.000000
1.285714 0.454545 0.000000
1.371429 0.454545 0.000000
1.457143 0.454545 0.000000
1.542857 0.454545 0.000000
1.628572 0.454545 0.000000
1.714286 0.454545 0.000000
1.800000 0.454545 0.000000
1.885714 0.454545 0.000000
1.971429 0.454545 0.000000
2.057143 0.454545 0.000000
2.142857 0.454545 0.000000
2.228571 0.454545 0.000000
2.314286 0.454545 0.000000
2.400000 0.454545 0.000000
2.485714 0.454545 0.000000
2.571429 0.454545 0.000000
2.657143 0.454545 0.000000
2.742857 0.454545 0.000000
2.828572 0.454545 0.000000
2.914286 0.454545 0.000000
3.000000 0.454545 0.000000
0.000000 0.545455 0.000000
0.085714 0.545455 0.000000
0.171429 0.545455 0.000000
0.257143 0.545455 0.000000
0.342857 0.545455 0.000000
0.428571 0.545455 0.000000
0.514286 0.545455 0.000000
0.600000 0.545455 0.000000
0.685714 0.545455 0.000000
0.771429 0.545455 0.000000
0.857143 0.545455 0.000000
0.942857 0.545455 0.000000
1.028571 0.545455 0.000000
1.114286 0.545455 0.000000
1.200000 0.545455 0.000000
1.285714 0.545455 0.000000
1.371429 0.545455 0.000000
1.457143 0.545455 0.000000
1.542857 0.545455 0.000000
1.628572 0.545455 0.000000
1.714286 0.545455 0.000000
1.800000 0.545455 0.000000
1.885714 0.545455 0.000000
1.971429 0.545455 0.000000
2.057143 0.545455 0.000000
2.142857 0.545455 0.000000
2.228571 0.545455 0.000000
2.314286 0.545455 0.000000
2.400000 0.545455 0.000000
2.485714 0.545455 0.000000
2.571429 0.545455 0.000000
2.657143 0.545455 0.000000
2.742857 0.545455 0.000000
2.828572 0.545455 0.000000
2.914286 0.545455 0.000000
3.000000 0.545455 0.000000
0.000000 0.636364 0.000000
0.085714 0.636364 0.000000
0.171429 0.636364 0.000000
0.257143 0.636364 0.000000
0.342857 0.636364 0.000000
0.428571 0.636364 0.000000
0.514286 0.636364 0.000000
0.600000 0.636364 0.000000
0.685714 0.636364 0.000000
0.771429 0.636364 0.000000
0.857143 0.636364 0.000000
0.942857 0.636364 0.000000
1.028571 0.636364 0.000000
1.114286 0.636364 0.000000
1.200000 0.636364 0.000000
1.285714 0.636364 0.000000
1.371429 0.636364 0.000000
1.457143 0.636364 0.000000
1.542857 0.636364 0.000000
1.628572 0.636364 0.000000
1.714286 0.636364 0.000000
1.800000 0.636364 0.000000
1.885714 0.636364 0.000000
1.971429 0.636364 0.000000
2.057143 0.636364 0.000000
2.142857 0.636364 0.000000
2.228571 0.636364 0.000000
2.314286 0.636364 0.000000
2.400000 0.636364 0.000000
2.485714 0.636364 0.000000
2.571429 0.636364 0.000000
2.657143 0.636364 0.000000
2.742857 0.636364 0.000000
2.828572 0.636364 0.000000
2.914286 0.636364 0.000000
3.000000 0.636364 0.000000
0.000000 0.727273 0.000000
0.085714 0.727273 0.000000
0.171429 0.727273 0.000000
0.257143 0.727273 0.000000
0.342857 0.727273 0.000000
0.428571 0.727273 0.000000
0.514286 0.727273 0.000000
0.600000 0.727273 0.000000
0.685714 0.727273 0.000000
0.771429 0.727273 0.000000
0.857143 0.727273 0.000000
0.942857 0.727273 0.000000
1.028571 0.727273 0.000000
1.114286 0.727273 0.000000
1.200000 0.727273 0.000000
1.285714 0.727273 0.000000
1.371429 0.727273 0.000000
1.457143 0.727273 0.000000
1.542857 0.727273 0.000000
1.628572 0.727273 0.000000
1.714286 0.727273 0.000000
1.800000 0.727273 0.000000
1.885714 0.727273 0.000000
1.971429 0.727273 0.000000
2.057143 0.727273 0.000000
2.142857 0.727273 0.000000
2.228571 0.727273 0.000000
2.314286 0.727273 0.000000
2.400000 0.727273 0.000000
2.485714 0.727273 0.000000
2.571429 0.727273 0.000000
2.657143 0.727273 0.000000
2.742857 0.727273 0.000000
2.828572 0.727273 0.000000
2.914286 0.727273 0.000000
3.000000 0.727273 0.000000
0.000000 0.818182 0.000000
0.085714 0.818182 0.000000
0.171429 0.818182 0.000000
0.257143 0.818182 0.000000
0.342857 0.818182 0.000000
0.428571 0.818182 0.000000
0.514286 0.818182 0.000000
0.600000 0.818182 0.000000
0.685714 0.818182 0.000000
0.771429 0.818182 0.000000
0.857143 0.818182 0.000000
0.942857 0.818182 0.000000
1.028571 0.818182 0.000000
1.114286 0.818182 0.000000
1.200000 0.818182 0.000000
1.285714 0.818182 0.000000
1.371429 0.818182 0.000000
1.457143 0.818182 0.000000
1.542857 0.818182 0.000000
1.628572 0.818182 0.000000
1.714286 0.818182 0.000000
1.800000 0.818182 0.000000
1.885714 0.818182 0.000000
1.971429 0.818182 0.000000
2.057143 0.818182 0.000000
2.142857 0.818182 0.000000
2.228571 0.818182 0.000000
2.314286 0.818182 0.000000
2.400000 0.818182 0.000000
2.485714 0.818182 0.000000
2.571429 0.818182 0.000000
2.657143 0.818182 0.000000
2.742857 0.818182 0.000000
2.828572 0.818182 0.000000
2.914286 0.818182 0.000000
3.000000 0.818182 0.000000
0.000000 0.909091 0.000000
0.085714 0.909091 0.000000
0.171429 0.909091 0.000000
0.257143 0.909091 0.000000
0.342857 0.909091 0.000000
0.428571 0.909091 0.000000
0.514286 0.909091 0.000000
[...]
POINT_DATA 2592
VECTORS attr0 float
0.000000 0.000000 0.000000 
-0.000002 0.000000 0.000000 
-0.000000 0.000000 0.000000 
0.000000 0.000000 0.000000 
0.000000 0.000000 0.000000 
0.000000 0.000000 0.000000 
0.000001 0.000000 0.000000 
0.000001 0.000000 0.000000 
0.000001 0.000000 0.000000 
0.000001 0.000000 0.000000 
0.000001 0.000000 0.000000 
0.000001 0.000000 0.000000 
0.000001 0.000000 0.000000 
0.000001 0.000000 0.000000 
0.000001 0.000000 0.000000 
0.000000 0.000000 0.000000 
0.000000 0.000000 0.000000 
-0.000000 0.000000 0.000000 
-0.000001 0.000000 0.000000 
-0.000002 0.000000 0.000000 
-0.000002 0.000000 0.000000 
-0.000003 0.000000 0.000000 
-0.000004 0.000000 0.000000 
-0.000005 0.000000 0.000000 
-0.000006 0.000000 0.000000 
-0.000005 0.000000 0.000000 
-0.000003 0.000000 0.000000 
0.000001 0.000000 0.000000 
0.000005 0.000000 0.000000 
0.000009 0.000000 0.000000 
0.000009 0.000000 0.000000 
0.000002 0.000000 0.000000 
-0.000008 0.000000 0.000000 
-0.000007 0.000000 0.000000 
0.000017 0.000000 0.000000 
0.000000 -0.000012 -0.000012 
0.000000 -0.000002 0.000000 
-0.000001 -0.000001 0.000000 
-0.000000 -0.000000 0.000000 
0.000000 -0.000000 0.000000 
0.000000 -0.000000 0.000000 
0.000000 -0.000000 0.000000 
0.000000 -0.000000 0.000000 
0.000000 -0.000000 0.000000 
0.000000 -0.000000 0.000000 
0.000001 -0.000000 0.000000 
0.000001 -0.000000 0.000000 
0.000001 0.000000 0.000000 
0.000001 0.000000 0.000000 
0.000000 0.000000 0.000000 
0.000000 0.000000 0.000000 
0.000000 0.000000 0.000000 
-0.000000 0.000000 0.000000 
-0.000000 0.000000 0.000000 
-0.000001 0.000000 0.000000 
-0.000001 0.000001 0.000000 
-0.000002 0.000001 0.000000 
-0.000003 0.000001 0.000000 
-0.000003 0.000000 0.000000 
-0.000003 0.000000 0.000000 
-0.000003 -0.000000 0.000000 
-0.000003 -0.000001 0.000000 
-0.000002 -0.000002 0.000000 
0.000000 -0.000002 0.000000 
0.000003 -0.000001 0.000000 
0.000004 0.000001 0.000000 
0.000005 0.000003 0.000000 
0.000003 0.000005 0.000000 
0.000001 0.000001 0.000000 
0.000002 -0.000005 0.000000 
0.000006 -0.000002 0.000000 
0.000000 0.000005 0.999998 
0.000000 -0.000000 0.000000 
-0.000000 -0.000000 0.000000 
0.000000 -0.000000 0.000000 
0.000000 -0.000000 0.000000 
0.000000 -0.000000 0.000000 
0.000000 -0.000000 0.000000 
0.000000 -0.000000 0.000000 
0.000000 -0.000000 0.000000 
0.000000 -0.000000 0.000000 
0.000000 -0.000000 0.000000 
0.000000 0.000000 0.000000 
0.000000 0.000000 0.000000 
0.000000 0.000000 0.000000 
0.000000 0.000000 0.000000 
0.000000 0.000000 0.000000 
-0.000000 0.000000 0.000000 
-0.000000 0.000001 0.000000 
-0.000000 0.000001 0.000000 
-0.000001 0.000001 0.000000 
-0.000001 0.000001 0.000000 
-0.000001 0.000001 0.000000 
-0.000002 0.000001 0.000000 
-0.000002 0.000001 0.000000 
-0.000002 0.000000 0.000000 
-0.000002 -0.000001 0.000000 
-0.000001 -0.000002 0.000000 
-0.000001 -0.000003 0.000000 
0.000001 -0.000003 0.000000 
0.000002 -0.000003 0.000000 
0.000003 -0.000000 0.000000 
0.000003 0.000003 0.000000 
0.000002 0.000005 0.000000 
0.000002 0.000001 0.000000 
0.000002 -0.000007 0.000000 
0.000003 -0.000005 0.000000 
0.000000 -0.000005 0.999998 
0.000000 -0.000000 0.000000 
0.000000 -0.000000 0.000000 
0.000000 -0.000000 0.000000 
0.000000 -0.000000 0.000000 
0.000000 -0.000000 0.000000 
0.000000 -0.000000 0.000000 
0.000000 -0.000000 0.000000 
0.000000 -0.000000 0.000000 
0.000000 -0.000000 0.000000 
0.000000 0.000000 0.000000 
0.000000 0.000000 0.000000 
0.000000 0.000000 0.000000 
0.000000 0.000000 0.000000 
0.000000 0.000000 0.000000 
-0.000000 0.000000 0.000000 
-0.000000 0.000001 0.000000 
-0.000000 0.000001 0.000000 
-0.000000 0.000001 0.000000 
-0.000001 0.000001 0.000000 
-0.000001 0.000001 0.000000 
-0.000001 0.000001 0.000000 
-0.000001 0.000001 0.000000 
-0.000001 0.000001 0.000000 
-0.000001 -0.000000 0.000000 
-0.000001 -0.000001 0.000000 
-0.000000 -0.000003 0.000000 
0.000000 -0.000004 0.000000 
0.000001 -0.000004 0.000000 
0.000001 -0.000003 0.000000 
0.000001 -0.000001 0.000000 
0.000001 0.000003 0.000000 
0.000000 0.000005 0.000000 
-0.000000 0.000000 0.000000 
-0.000000 -0.000008 0.000000 
-0.000000 -0.000006 0.000000 
0.000000 -0.000005 0.999998 
0.000000 -0.000000 0.000000 
0.000000 -0.000000 0.000000 
0.000000 -0.000000 0.000000 
0.000000 -0.000000 0.000000 
0.000000 -0.000000 0.000000 
0.000000 -0.000000 0.000000 
0.000000 -0.000000 0.000000 
0.000000 -0.000000 0.000000 
0.000000 -0.000000 0.000000 
0.000000 0.000000 0.000000 
0.000000 0.000000 0.000000 
0.000000 0.000000 0.000000 
0.000000 0.000000 0.000000 
-0.000000 0.000000 0.000000 
-0.000000 0.000001 0.000000 
-0.000000 0.000001 0.000000 
-0.000000 0.000001 0.000000 
-0.000000 0.000001 0.000000 
-0.000000 0.000001 0.000000 
-0.000001 0.000001 0.000000 
-0.000001 0.000001 0.000000 
-0.000000 0.000001 0.000000 
-0.000000 0.000001 0.000000 
-0.000000 -0.000000 0.000000 
0.000000 -0.000001 0.000000 
0.000001 -0.000003 0.000000 
0.000001 -0.000004 0.000000 
0.000001 -0.000005 0.000000 
0.000001 -0.000003 0.000000 
0.000000 -0.000000 0.000000 
-0.000000 0.000004 0.000000 
-0.000001 0.000005 0.000000 
-0.000002 0.000000 0.000000 
-0.000003 -0.000009 0.000000 
-0.000003 -0.000005 0.000000 
0.000000 -0.000003 0.999998 
0.000000 -0.000000 0.000000 
0.000000 -0.000000 0.000000 
0.000000 -0.000000 0.000000 
0.000000 -0.000000 0.000000 
0.000000 -0.000000 0.000000 
0.000000 -0.000000 0.000000 
0.000000 -0.000000 0.000000 
0.000000 -0.000000 0.000000 
0.000000 0.000000 0.000000 
0.000000 0.000000 0.000000 
0.000000 0.000000 0.000000 
-0.000000 0.000000 0.000000 
-0.000000 0.000000 0.000000 
-0.000000 0.000001 0.000000 
-0.000000 0.000001 0.000000 
-0.000000 0.000001 0.000000 
-0.000000 0.000001 0.000000 
-0.000000 0.000001 0.000000 
-0.000000 0.000001 0.000000 
-0.000000 0.000001 0.000000 
-0.000000 0.000001 0.000000 
0.000000 0.000001 0.000000 
0.000000 0.000000 0.000000 
0.000001 -0.000001 0.000000 
0.000001 -0.000002 0.000000 
0.000001 -0.000003 0.000000 
0.000001 -0.000004 0.000000 
0.000001 -0.000004 0.000000 
0.000000 -0.000003 0.000000 
-0.000001 0.000001 0.000000 
-0.000002 0.000005 0.000000 
-0.000003 0.000006 0.000000 
-0.000004 0.000001 0.000000 
-0.000004 -0.000009 0.000000 
-0.000004 -0.000005 0.000000 
0.000000 -0.000003 0.999998 
0.000000 -0.000000 0.000000 
0.000000 -0.000000 0.000000 
0.000000 -0.000000 0.000000 
0.000000 -0.000000 0.000000 
0.000000 -0.000000 0.000000 
0.000000 -0.000000 0.000000 
0.000000 -0.000000 0.000000 
0.000000 0.000000 0.000000 
0.000000 0.000000 0.000000 
-0.000000 0.000000 0.000000 
-0.000000 0.000000 0.000000 
-0.000000 0.000000 0.000000 
-0.000000 0.000000 0.000000 
-0.000000 0.000001 0.000000 
-0.000000 0.000001 0.000000 
-0.000000 0.000001 0.000000 
-0.000000 0.000001 0.000000 
-0.000000 0.000001 0.000000 
-0.000000 0.000001 0.000000 
-0.000000 0.000001 0.000000 
0.000000 0.000001 0.000000 
0.000000 0.000001 0.000000 
0.000001 0.000000 0.000000 
0.000001 -0.000001 0.000000 
0.000001 -0.000002 0.000000 
0.000001 -0.000003 0.000000 
0.000001 -0.000004 0.000000 
0.000001 -0.000004 0.000000 
-0.000000 -0.000002 0.000000 
-0.000001 0.000002 0.000000 
-0.000003 0.000006 0.000000 
-0.000003 0.000007 0.000000 
-0.000004 0.000001 0.000000 
-0.000004 -0.000009 0.000000 
-0.000003 -0.000007 0.000000 
0.000000 -0.000006 0.999998 
0.000000 -0.000000 0.000000 
0.000000 -0.000000 0.000000 
0.000000 -0.000000 0.000000 
0.000000 -0.000000 0.000000 
0.000000 -0.000000 0.000000 
0.000000 -0.000000 0.000000 
0.000000 -0.000000 0.000000 
-0.000000 0.000000 0.000000 
-0.000000 0.000000 0.000000 
-0.000000 0.000000 0.000000 
-0.000000 0.000000 0.000000 
-0.000000 0.000000 0.000000 
-0.000000 0.000001 0.000000 
-0.000000 0.000001 0.000000 
-0.000000 0.000001 0.000000 
-0.000000 0.000001 0.000000 
-0.000000 0.000001 0.000000 
-0.000000 0.000001 0.000000 
-0.000000 0.000001 0.000000 
0.000000 0.000001 0.000000 
0.000000 0.000001 0.000000 
0.000001 0.000001 0.000000 
0.000001 -0.000000 0.000000 
0.000001 -0.000001 0.000000 
0.000001 -0.000002 0.000000 
0.000001 -0.000003 0.000000 
0.000001 -0.000003 0.000000 
0.000000 -0.000003 0.000000 
-0.000001 -0.000001 0.000000 
-0.000002 0.000003 0.000000 
-0.000003 0.000007 0.000000 
-0.000003 0.000007 0.000000 
-0.000002 0.000000 0.000000 
-0.000001 -0.000011 0.000000 
-0.000000 -0.000008 0.000000 
0.000000 -0.000006 0.999998 
0.000000 -0.000000 0.000000 
0.000000 -0.000000 0.000000 
0.000000 -0.000000 0.000000 
0.000000 -0.000000 0.000000 
0.000000 -0.000000 0.000000 
0.000000 -0.000000 0.000000 
-0.000000 0.000000 0.000000 
-0.000000 0.000000 0.000000 
-0.000000 0.000000 0.000000 
-0.000000 0.000000 0.000000 
-0.000000 0.000000 0.000000 
-0.000000 0.000000 0.000000 
-0.000000 0.000001 0.000000 
-0.000000 0.000001 0.000000 
-0.000000 0.000001 0.000000 
-0.000000 0.000001 0.000000 
-0.000000 0.000001 0.000000 
-0.000000 0.000001 0.000000 
0.000000 0.000001 0.000000 
0.000000 0.000001 0.000000 
0.000000 0.000001 0.000000 
0.000001 0.000000 0.000000 
0.000001 -0.000000 0.000000 
0.000001 -0.000001 0.000000 
0.000001 -0.000002 0.000000 
0.000001 -0.000003 0.000000 
0.000000 -0.000003 0.000000 
-0.000000 -0.000002 0.000000 
-0.000001 0.000000 0.000000 
-0.000002 0.000004 0.000000 
-0.000003 0.000007 0.000000 
-0.000002 0.000006 0.000000 
0.000000 -0.000002 0.000000 
0.000002 -0.000012 0.000000 
0.000003 -0.000009 0.000000 
0.000000 -0.000002 0.999998 
0.000000 -0.000000 0.000000 
0.000000 -0.000000 0.000000 
0.000000 -0.000000 0.000000 
0.000000 -0.000000 0.000000 
-0.000000 -0.000000 0.000000 
-0.000000 -0.000000 0.000000 
-0.000000 0.000000 0.000000 
-0.000000 0.000000 0.000000 
-0.000000 0.000000 0.000000 
-0.000000 0.000000 0.000000 
-0.000000 0.000000 0.000000 
-0.000000 0.000000 0.000000 
-0.000000 0.000001 0.000000 
-0.000000 0.000001 0.000000 
-0.000000 0.000001 0.000000 
-0.000000 0.000001 0.000000 
-0.000000 0.000001 0.000000 
-0.000000 0.000001 0.000000 
0.000000 0.000001 0.000000 
0.000000 0.000001 0.000000 
0.000000 0.000001 0.000000 
0.000000 0.000000 0.000000 
0.000001 -0.000000 0.000000 
0.000001 -0.000001 0.000000 
0.000001 -0.000002 0.000000 
0.000000 -0.000002 0.000000 
0.000000 -0.000002 0.000000 
-0.000001 -0.000001 0.000000 
-0.000001 0.000001 0.000000 
-0.000002 0.000004 0.000000 
-0.000002 0.000006 0.000000 
-0.000000 0.000003 0.000000 
0.000002 -0.000005 0.000000 
0.000004 -0.000014 0.000000 
0.000004 -0.000008 0.000000 
0.000000 0.000001 0.999998 
0.000000 -0.000000 0.000000 
0.000000 -0.000000 0.000000 
0.000000 -0.000000 0.000000 
0.000000 -0.000000 0.000000 
-0.000000 -0.000000 0.000000 
-0.000000 -0.000000 0.000000 
-0.000000 0.000000 0.000000 
-0.000000 0.000000 0.000000 
-0.000000 0.000000 0.000000 
-0.000000 0.000000 0.000000 
-0.000000 0.000000 0.000000 
-0.000000 0.000000 0.000000 
-0.000000 0.000000 0.000000 
-0.000000 0.000001 0.000000 
-0.000000 0.000001 0.000000 
-0.000000 0.000001 0.000000 
-0.000000 0.000001 0.000000 
-0.000000 0.000001 0.000000 
0.000000 0.000001 0.000000 
0.000000 0.000001 0.000000 
0.000000 0.000000 0.000000 
0.000000 0.000000 0.000000 
0.000000 -0.000000 0.000000 
0.000000 -0.000001 0.000000 
0.000000 -0.000001 0.000000 
0.000000 -0.000001 0.000000 
-0.000000 -0.000001 0.000000 
-0.000000 -0.000000 0.000000 
-0.000001 0.000001 0.000000 
-0.000001 0.000003 0.000000 
-0.000001 0.000004 0.000000 
0.000000 0.000001 0.000000 
0.000001 -0.000007 0.000000 
0.000002 -0.000014 0.000000 
0.000002 -0.000007 0.000000 
0.000000 -0.000008 0.999998 
0.000000 0.000000 0.000000 
-0.000000 0.000000 0.000000 
-0.000000 0.000000 0.000000 
-0.000000 0.000000 0.000000 
-0.000000 0.000000 0.000000 
-0.000000 0.000000 0.000000 
-0.000000 0.000000 0.000000 
-0.000000 0.000000 0.000000 
-0.000000 0.000000 0.000000 
-0.000000 0.000000 0.000000 
-0.000000 0.000000 0.000000 
0.000000 0.000000 0.000000 
0.000000 0.000000 0.000000 
0.000000 0.000000 0.000000 
0.000000 0.000000 0.000000 
0.000000 0.000000 0.000000 
0.000000 0.000000 0.000000 
-0.000000 0.000000 0.000000 
-0.000000 0.000000 0.000000 
-0.000000 0.000000 0.000000 
-0.000000 0.000000 0.000000 
-0.000000 0.000000 0.000000 
-0.000000 0.000000 0.000000 
0.000000 0.000000 0.000000 
0.000000 0.000000 0.000000 
0.000000 0.000000 0.000000 
0.000000 0.000000 0.000000 
0.000000 0.000000 0.000000 
0.000000 0.000000 0.000000 
-0.000000 0.000000 0.000000 
-0.000000 0.000000 0.000000 
-0.000000 0.000000 0.000000 
-0.000000 0.000000 0.000000 
-0.000000 0.000000 0.000000 
-0.000000 0.000000 0.000000 
0.000000 -0.000012 -0.000012 
0.000000 0.000000 -0.000002 
-0.000001 0.000000 -0.000001 
-0.000000 0.000000 -0.000000 
0.000000 0.000000 -0.000000 
0.000000 0.000000 -0.000000 
0.000000 0.000000 -0.000000 
0.000000 0.000000 -0.000000 
0.000000 0.000000 -0.000000 
0.000000 0.000000 -0.000000 
0.000001 0.000000 -0.000000 
0.000001 0.000000 -0.000000 
0.000001 0.000000 0.000000 
0.000001 0.000000 0.000000 
0.000000 0.000000 0.000000 
0.000000 0.000000 0.000000 
0.000000 0.000000 0.000000 
-0.000000 0.000000 0.000000 
-0.000000 0.000000 0.000000 
-0.000001 0.000000 0.000000 
-0.000001 0.000000 0.000001 
-0.000002 0.000000 0.000001 
-0.000003 0.000000 0.000001 
-0.000003 0.000000 0.000000 
-0.000003 0.000000 0.000000 
-0.000003 0.000000 -0.000000 
-0.000003 0.000000 -0.000001 
-0.000002 0.000000 -0.000002 
0.000000 0.000000 -0.000002 
0.000003 0.000000 -0.000001 
0.000004 0.000000 0.000001 
0.000005 0.000000 0.000003 
0.000003 0.000000 0.000005 
0.000001 0.000000 0.000001 
0.000002 0.000000 -0.000005 
0.000006 0.000000 -0.000002 
0.000000 0.999998 0.000005 
0.000000 -0.000001 -0.000001 
-0.000002 -0.000001 -0.000001 
-0.000002 0.000000 0.000000 
-0.000003 0.000001 0.000001 
-0.000006 0.000001 0.000001 
-0.000010 0.000002 0.000002 
-0.000015 0.000003 0.000003 
-0.000024 0.000004 0.000004 
-0.000035 0.000005 0.000005 
-0.000049 0.000007 0.000007 
-0.000068 0.000009 0.000009 
-0.000091 0.000010 0.000010 
-0.000116 0.000011 0.000011 
-0.000140 0.000011 0.000011 
-0.000155 0.000007 0.000007 
-0.000147 -0.000004 -0.000004 
-0.000090 -0.000027 -0.000027 
0.000058 -0.000069 -0.000069 
0.000365 -0.000142 -0.000142 
0.000936 -0.000264 -0.000264 
0.001934 -0.000460 -0.000460 
0.003596 -0.000767 -0.000767 
0.006271 -0.001234 -0.001234 
0.010450 -0.001930 -0.001930 
0.016814 -0.002949 -0.002949 
0.026287 -0.004416 -0.004416 
0.040091 -0.006501 -0.006501 
0.059811 -0.009450 -0.009450 
0.087444 -0.013635 -0.013635 
0.125412 -0.019643 -0.019643 
0.176381 -0.028378 -0.028378 
0.242312 -0.040761 -0.040761 
0.320754 -0.054854 -0.054854 
0.391708 -0.049490 -0.049490 
0.374618 0.097490 0.097490 
0.000000 1.000007 1.000007 
0.000000 -0.000000 -0.000000 
-0.000001 0.000000 -0.000000 
-0.000002 0.000001 0.000001 
-0.000005 0.000002 0.000001 
-0.000009 0.000004 0.000002 
-0.000015 0.000005 0.000003 
-0.000024 0.000007 0.000004 
-0.000035 0.000010 0.000006 
-0.000051 0.000014 0.000008 
-0.000072 0.000018 0.000010 
-0.000098 0.000022 0.000013 
-0.000129 0.000025 0.000015 
-0.000161 0.000026 0.000016 
-0.000189 0.000021 0.000014 
-0.000198 0.000004 0.000005 
-0.000167 -0.000034 -0.000014 
-0.000055 -0.000108 -0.000052 
0.000203 -0.000241 -0.000122 
0.000712 -0.000465 -0.000241 
0.001632 -0.000831 -0.000437 
0.003205 -0.001410 -0.000749 
0.005783 -0.002300 -0.001232 
0.009874 -0.003634 -0.001962 
0.016184 -0.005591 -0.003038 
0.025672 -0.008398 -0.004594 
0.039601 -0.012345 -0.006805 
0.059574 -0.017780 -0.009897 
0.087525 -0.025114 -0.014176 
0.125612 -0.034793 -0.020068 
0.175866 -0.047168 -0.028194 
0.239282 -0.061996 -0.039364 
0.313487 -0.076564 -0.053935 
0.386942 -0.079226 -0.067798 
0.425354 -0.028564 -0.053447 
0.345610 0.207727 0.119872 
0.000000 1.000005 1.000008 
0.000000 -0.000000 -0.000000 
-0.000001 0.000001 0.000000 
-0.000002 0.000003 0.000001 
-0.000005 0.000004 0.000001 
-0.000010 0.000006 0.000002 
-0.000017 0.000009 0.000003 
-0.000026 0.000012 0.000005 
-0.000039 0.000017 0.000007 
-0.000056 0.000022 0.000009 
-0.000078 0.000029 0.000012 
-0.000105 0.000035 0.000014 
-0.000137 0.000039 0.000017 
-0.000169 0.000038 0.000017 
-0.000194 0.000026 0.000014 
-0.000198 -0.000007 0.000003 
-0.000153 -0.000077 -0.000022 
-0.000017 -0.000210 -0.000070 
0.000286 -0.000443 -0.000157 
0.000868 -0.000834 -0.000303 
0.001905 -0.001465 -0.000542 
0.003662 -0.002453 -0.000920 
0.006519 -0.003959 -0.001501 
0.011018 -0.006195 -0.002371 
0.017908 -0.009440 -0.003646 
0.028188 -0.014033 -0.005474 
0.043142 -0.020372 -0.008042 
0.064343 -0.028870 -0.011586 
0.093564 -0.039876 -0.016403 
0.132549 -0.053466 -0.022883 
0.182450 -0.068988 -0.031547 
0.242664 -0.083962 -0.042995 
0.308452 -0.091388 -0.057149 
0.366210 -0.073116 -0.069090 
0.384504 0.016201 -0.050325 
0.299347 0.286552 0.128296 
0.000000 1.000005 1.000002 
0.000000 -0.000000 -0.000000 
-0.000001 0.000002 0.000000 
-0.000002 0.000004 0.000001 
-0.000005 0.000005 0.000002 
-0.000009 0.000008 0.000003 
-0.000015 0.000011 0.000004 
-0.000024 0.000016 0.000005 
-0.000036 0.000022 0.000007 
-0.000052 0.000029 0.000010 
-0.000072 0.000037 0.000012 
-0.000097 0.000045 0.000015 
-0.000127 0.000050 0.000018 
-0.000156 0.000048 0.000018 
-0.000180 0.000031 0.000014 
-0.000184 -0.000015 0.000001 
-0.000143 -0.000110 -0.000027 
-0.000017 -0.000287 -0.000080 
0.000261 -0.000597 -0.000175 
0.000798 -0.001114 -0.000335 
0.001755 -0.001946 -0.000596 
0.003374 -0.003244 -0.001006 
0.006008 -0.005213 -0.001634 
0.010153 -0.008126 -0.002571 
0.016493 -0.012326 -0.003938 
0.025935 -0.018221 -0.005888 
0.039637 -0.026254 -0.008608 
0.058987 -0.036816 -0.012328 
0.085515 -0.050069 -0.017321 
0.120640 -0.065583 -0.023932 
0.165149 -0.081630 -0.032593 
0.218188 -0.093815 -0.043752 
0.275377 -0.092397 -0.057105 
0.325242 -0.056943 -0.067480 
0.342134 0.054919 -0.046418 
0.271394 0.334278 0.133713 
0.000000 1.000007 0.999998 
0.000000 -0.000000 -0.000000 
-0.000000 0.000002 0.000000 
-0.000002 0.000004 0.000001 
-0.000004 0.000006 0.000002 
-0.000007 0.000009 0.000003 
-0.000012 0.000013 0.000004 
-0.000019 0.000018 0.000005 
-0.000029 0.000024 0.000007 
-0.000042 0.000032 0.000010 
-0.000059 0.000041 0.000013 
-0.000081 0.000050 0.000016 
-0.000106 0.000057 0.000018 
-0.000133 0.000055 0.000018 
-0.000156 0.000037 0.000014 
-0.000165 -0.000011 0.000002 
-0.000142 -0.000113 -0.000027 
-0.000054 -0.000305 -0.000081 
0.000153 -0.000643 -0.000177 
0.000562 -0.001208 -0.000340 
0.001303 -0.002119 -0.000605 
0.002572 -0.003543 -0.001023 
0.004653 -0.005705 -0.001661 
0.007951 -0.008904 -0.002615 
0.013028 -0.013513 -0.004004 
0.020634 -0.019968 -0.005982 
0.031735 -0.028721 -0.008734 
0.047513 -0.040128 -0.012483 
0.069314 -0.054212 -0.017487 
0.098490 -0.070213 -0.024060 
0.136050 -0.085769 -0.032577 
0.181952 -0.095481 -0.043396 
0.233626 -0.088440 -0.056086 
0.282748 -0.043869 -0.065358 
0.307579 0.077727 -0.042849 
0.254618 0.357925 0.138019 
0.000000 1.000007 0.999998 
0.000000 -0.000000 -0.000000 
-0.000000 0.000002 0.000000 
-0.000001 0.000004 0.000001 
-0.000002 0.000006 0.000002 
-0.000005 0.000009 0.000003 
-0.000008 0.000012 0.000004 
-0.000013 0.000017 0.000005 
-0.000021 0.000024 0.000007 
-0.000030 0.000032 0.000010 
-0.000043 0.000041 0.000013 
-0.000060 0.000051 0.000016 
-0.000080 0.000059 0.000018 
-0.000103 0.000060 0.000019 
-0.000126 0.000047 0.000016 
-0.000142 0.000007 0.000005 
-0.000139 -0.000082 -0.000021 
-0.000097 -0.000255 -0.000071 
0.000019 -0.000562 -0.000162 
0.000269 -0.001083 -0.000317 
0.000739 -0.001930 -0.000571 
0.001568 -0.003263 -0.000972 
0.002958 -0.005301 -0.001589 
0.005199 -0.008335 -0.002513 
0.008704 -0.012730 -0.003863 
0.014037 -0.018915 -0.005792 
0.021948 -0.027343 -0.008484 
0.033403 -0.038373 -0.012159 
0.049603 -0.052039 -0.017073 
0.071956 -0.067600 -0.023530 
0.101961 -0.082711 -0.031890 
0.140829 -0.091980 -0.042465 
0.188329 -0.084484 -0.054743 
0.239467 -0.039454 -0.063310 
0.275386 0.082401 -0.039772 
0.240951 0.361827 0.141727 
0.000000 1.000005 0.999998 
0.000000 -0.000000 -0.000000 
-0.000000 0.000002 0.000000 