# vtk DataFile Version 3.0
grids
ASCII
DATASET POLYDATA
POINTS 16384 float
0.000000 0.000000 0.0
0.011765 0.000000 0.0
0.023529 0.000000 0.0
0.035294 0.000000 0.0
0.047059 0.000000 0.0
0.058824 0.000000 0.0
0.070588 0.000000 0.0
0.082353 0.000000 0.0
0.094118 0.000000 0.0
0.105882 0.000000 0.0
0.117647 0.000000 0.0
0.129412 0.000000 0.0
0.141176 0.000000 0.0
0.152941 0.000000 0.0
0.164706 0.000000 0.0
0.176471 0.000000 0.0
0.188235 0.000000 0.0
0.200000 0.000000 0.0
0.211765 0.000000 0.0
0.223529 0.000000 0.0
0.235294 0.000000 0.0
0.247059 0.000000 0.0
0.258824 0.000000 0.0
0.270588 0.000000 0.0
0.282353 0.000000 0.0
0.294118 0.000000 0.0
0.305882 0.000000 0.0
0.317647 0.000000 0.0
0.329412 0.000000 0.0
0.341176 0.000000 0.0
0.352941 0.000000 0.0
0.364706 0.000000 0.0
0.376471 0.000000 0.0
0.388235 0.000000 0.0
0.400000 0.000000 0.0
0.411765 0.000000 0.0
0.423529 0.000000 0.0
0.435294 0.000000 0.0
0.447059 0.000000 0.0
0.458824 0.000000 0.0
0.470588 0.000000 0.0
0.482353 0.000000 0.0
0.494118 0.000000 0.0
0.505882 0.000000 0.0
0.517647 0.000000 0.0
0.529412 0.000000 0.0
0.541176 0.000000 0.0
0.552941 0.000000 0.0
0.564706 0.000000 0.0
0.576471 0.000000 0.0
0.588235 0.000000 0.0
0.600000 0.000000 0.0
0.611765 0.000000 0.0
0.623529 0.000000 0.0
0.635294 0.000000 0.0
0.647059 0.000000 0.0
0.658824 0.000000 0.0
0.670588 0.000000 0.0
0.682353 0.000000 0.0
0.694118 0.000000 0.0
0.705882 0.000000 0.0
0.717647 0.000000 0.0
0.729412 0.000000 0.0
0.741176 0.000000 0.0
0.752941 0.000000 0.0
0.764706 0.000000 0.0
0.776471 0.000000 0.0
0.788235 0.000000 0.0
0.800000 0.000000 0.0
0.811765 0.000000 0.0
0.823529 0.000000 0.0
0.835294 0.000000 0.0
0.847059 0.000000 0.0
0.858824 0.000000 0.0
0.870588 0.000000 0.0
0.882353 0.000000 0.0
0.894118 0.000000 0.0
0.905882 0.000000 0.0
0.917647 0.000000 0.0
0.929412 0.000000 0.0
0.941176 0.000000 0.0
0.952941 0.000000 0.0
0.964706 0.000000 0.0
0.976471 0.000000 0.0
0.988235 0.000000 0.0
1.000000 0.000000 0.0
1.011765 0.000000 0.0
1.023529 0.000000 0.0
1.035294 0.000000 0.0
1.047059 0.000000 0.0
1.058824 0.000000 0.0
1.070588 0.000000 0.0
1.082353 0.000000 0.0
1.094118 0.000000 0.0
1.105882 0.000000 0.0
1.117647 0.000000 0.0
1.129412 0.000000 0.0
1.141176 0.000000 0.0
1.152941 0.000000 0.0
1.164706 0.000000 0.0
1.176471 0.000000 0.0
1.188235 0.000000 0.0
1.200000 0.000000 0.0
1.211765 0.000000 0.0
1.223529 0.000000 0.0
1.235294 0.000000 0.0
1.247059 0.000000 0.0
1.258824 0.000000 0.0
1.270588 0.000000 0.0
1.282353 0.000000 0.0
1.294118 0.000000 0.0
1.305882 0.000000 0.0
1.317647 0.000000 0.0
1.329412 0.000000 0.0
1.341177 0.000000 0.0
1.352941 0.000000 0.0
1.364706 0.000000 0.0
1.376471 0.000000 0.0
1.388235 0.000000 0.0
1.400000 0.000000 0.0
1.411765 0.000000 0.0
1.423529 0.000000 0.0
1.435294 0.000000 0.0
1.447059 0.000000 0.0
1.458824 0.000000 0.0
1.470588 0.000000 0.0
1.482353 0.000000 0.0
1.494118 0.000000 0.0
1.505882 0.000000 0.0
1.517647 0.000000 0.0
1.529412 0.000000 0.0
1.541177 0.000000 0.0
1.552941 0.000000 0.0
1.564706 0.000000 0.0
1.576471 0.000000 0.0
1.588235 0.000000 0.0
1.600000 0.000000 0.0
1.611765 0.000000 0.0
1.623529 0.000000 0.0
1.635294 0.000000 0.0
1.647059 0.000000 0.0
1.658824 0.000000 0.0
1.670588 0.000000 0.0
1.682353 0.000000 0.0
1.694118 0.000000 0.0
1.705882 0.000000 0.0
1.717647 0.000000 0.0
1.729412 0.000000 0.0
1.741176 0.000000 0.0
1.752941 0.000000 0.0
1.764706 0.000000 0.0
1.776471 0.000000 0.0
1.788235 0.000000 0.0
1.800000 0.000000 0.0
1.811765 0.000000 0.0
1.823529 0.000000 0.0
1.835294 0.000000 0.0
1.847059 0.000000 0.0
1.858824 0.000000 0.0
1.870588 0.000000 0.0
1.882353 0.000000 0.0
1.894118 0.000000 0.0
1.905882 0.000000 0.0
1.917647 0.000000 0.0
1.929412 0.000000 0.0
1.941177 0.000000 0.0
1.952941 0.000000 0.0
1.964706 0.000000 0.0
1.976471 0.000000 0.0
1.988235 0.000000 0.0
2.000000 0.000000 0.0
2.011765 0.000000 0.0
2.023530 0.000000 0.0
2.035294 0.000000 0.0
2.047059 0.000000 0.0
2.058824 0.000000 0.0
2.070588 0.000000 0.0
2.082353 0.000000 0.0
2.094118 0.000000 0.0
2.105882 0.000000 0.0
2.117647 0.000000 0.0
2.129412 0.000000 0.0
2.141176 0.000000 0.0
2.152941 0.000000 0.0
2.164706 0.000000 0.0
2.176471 0.000000 0.0
2.188235 0.000000 0.0
2.200000 0.000000 0.0
2.211765 0.000000 0.0
2.223529 0.000000 0.0
2.235294 0.000000 0.0
2.247059 0.000000 0.0
2.258824 0.000000 0.0
2.270588 0.000000 0.0
2.282353 0.000000 0.0
2.294118 0.000000 0.0
2.305882 0.000000 0.0
2.317647 0.000000 0.0
2.329412 0.000000 0.0
2.341177 0.000000 0.0
2.352941 0.000000 0.0
2.364706 0.000000 0.0
2.376471 0.000000 0.0
2.388235 0.000000 0.0
2.400000 0.000000 0.0
2.411765 0.000000 0.0
2.423529 0.000000 0.0
2.435294 0.000000 0.0
2.447059 0.000000 0.0
2.458824 0.000000 0.0
2.470588 0.000000 0.0
2.482353 0.000000 0.0
2.494118 0.000000 0.0
2.505883 0.000000 0.0
2.517647 0.000000 0.0
2.529412 0.000000 0.0
2.541177 0.000000 0.0
2.552941 0.000000 0.0
2.564706 0.000000 0.0
2.576471 0.000000 0.0
2.588235 0.000000 0.0
2.600000 0.000000 0.0
2.611765 0.000000 0.0
2.623529 0.000000 0.0
2.635294 0.000000 0.0
2.647059 0.000000 0.0
2.658823 0.000000 0.0
2.670588 0.000000 0.0
2.682353 0.000000 0.0
2.694118 0.000000 0.0
2.705882 0.000000 0.0
2.717647 0.000000 0.0
2.729412 0.000000 0.0
2.741177 0.000000 0.0
2.752941 0.000000 0.0
2.764706 0.000000 0.0
2.776471 0.000000 0.0
2.788235 0.000000 0.0
2.800000 0.000000 0.0
2.811765 0.000000 0.0
2.823529 0.000000 0.0
2.835294 0.000000 0.0
2.847059 0.000000 0.0
2.858824 0.000000 0.0
2.870588 0.000000 0.0
2.882353 0.000000 0.0
2.894118 0.000000 0.0
2.905882 0.000000 0.0
2.917647 0.000000 0.0
2.929412 0.000000 0.0
2.941176 0.000000 0.0
2.952941 0.000000 0.0
2.964706 0.000000 0.0
2.976471 0.000000 0.0
2.988235 0.000000 0.0
3.000000 0.000000 0.0
0.000000 0.015873 0.0
0.011765 0.015873 0.0
0.023529 0.015873 0.0
0.035294 0.015873 0.0
0.047059 0.015873 0.0
0.058824 0.015873 0.0
0.070588 0.015873 0.0
0.082353 0.015873 0.0
0.094118 0.015873 0.0
0.105882 0.015873 0.0
0.117647 0.015873 0.0
0.129412 0.015873 0.0
0.141176 0.015873 0.0
0.152941 0.015873 0.0
0.164706 0.015873 0.0
0.176471 0.015873 0.0
0.188235 0.015873 0.0
0.200000 0.015873 0.0
0.211765 0.015873 0.0
0.223529 0.015873 0.0
0.235294 0.015873 0.0
0.247059 0.015873 0.0
0.258824 0.015873 0.0
0.270588 0.015873 0.0
0.282353 0.015873 0.0
0.294118 0.015873 0.0
0.305882 0.015873 0.0
0.317647 0.015873 0.0
0.329412 0.015873 0.0
0.341176 0.015873 0.0
0.352941 0.015873 0.0
0.364706 0.015873 0.0
0.376471 0.015873 0.0
0.388235 0.015873 0.0
0.400000 0.015873 0.0
0.411765 0.015873 0.0
0.423529 0.015873 0.0
0.435294 0.015873 0.0
0.447059 0.015873 0.0
0.458824 0.015873 0.0
0.470588 0.015873 0.0
0.482353 0.015873 0.0
0.494118 0.015873 0.0
0.505882 0.015873 0.0
0.517647 0.015873 0.0
0.529412 0.015873 0.0
0.541176 0.015873 0.0
0.552941 0.015873 0.0
0.564706 0.015873 0.0
0.576471 0.015873 0.0
0.588235 0.015873 0.0
0.600000 0.015873 0.0
0.611765 0.015873 0.0
0.623529 0.015873 0.0
0.635294 0.015873 0.0
0.647059 0.015873 0.0
0.658824 0.015873 0.0
0.670588 0.015873 0.0
0.682353 0.015873 0.0
0.694118 0.015873 0.0
0.705882 0.015873 0.0
0.717647 0.015873 0.0
0.729412 0.015873 0.0
0.741176 0.015873 0.0
0.752941 0.015873 0.0
0.764706 0.015873 0.0
0.776471 0.015873 0.0
0.788235 0.015873 0.0
0.800000 0.015873 0.0
0.811765 0.015873 0.0
0.823529 0.015873 0.0
0.835294 0.015873 0.0
0.847059 0.015873 0.0
0.858824 0.015873 0.0
0.870588 0.015873 0.0
0.882353 0.015873 0.0
0.894118 0.015873 0.0
0.905882 0.015873 0.0
0.917647 0.015873 0.0
0.929412 0.015873 0.0
0.941176 0.015873 0.0
0.952941 0.015873 0.0
0.964706 0.015873 0.0
0.976471 0.015873 0.0
0.988235 0.015873 0.0
1.000000 0.015873 0.0
1.011765 0.015873 0.0
1.023529 0.015873 0.0
1.035294 0.015873 0.0
1.047059 0.015873 0.0
1.058824 0.015873 0.0
1.070588 0.015873 0.0
1.082353 0.015873 0.0
1.094118 0.015873 0.0
1.105882 0.015873 0.0
1.117647 0.015873 0.0
1.129412 0.015873 0.0
1.141176 0.015873 0.0
1.152941 0.015873 0.0
1.164706 0.015873 0.0
1.176471 0.015873 0.0
1.188235 0.015873 0.0
1.200000 0.015873 0.0
1.211765 0.015873 0.0
1.223529 0.015873 0.0
1.235294 0.015873 0.0
1.247059 0.015873 0.0
1.258824 0.015873 0.0
1.270588 0.015873 0.0
1.282353 0.015873 0.0
1.294118 0.015873 0.0
1.305882 0.015873 0.0
1.317647 0.015873 0.0
1.329412 0.015873 0.0
1.341177 0.015873 0.0
1.352941 0.015873 0.0
1.364706 0.015873 0.0
1.376471 0.015873 0.0
1.388235 0.015873 0.0
1.400000 0.015873 0.0
1.411765 0.015873 0.0
1.423529 0.015873 0.0
1.435294 0.015873 0.0
1.447059 0.015873 0.0
1.458824 0.015873 0.0
1.470588 0.015873 0.0
1.482353 0.015873 0.0
1.494118 0.015873 0.0
1.505882 0.015873 0.0
1.517647 0.015873 0.0
1.529412 0.015873 0.0
1.541177 0.015873 0.0
1.552941 0.015873 0.0
1.564706 0.015873 0.0
1.576471 0.015873 0.0
1.588235 0.015873 0.0
1.600000 0.015873 0.0
1.611765 0.015873 0.0
1.623529 0.015873 0.0
1.635294 0.015873 0.0
1.647059 0.015873 0.0
1.658824 0.015873 0.0
1.670588 0.015873 0.0
1.682353 0.015873 0.0
1.694118 0.015873 0.0
1.705882 0.015873 0.0
1.717647 0.015873 0.0
1.729412 0.015873 0.0
1.741176 0.015873 0.0
1.752941 0.015873 0.0
1.764706 0.015873 0.0
1.776471 0.015873 0.0
1.788235 0.015873 0.0
1.800000 0.015873 0.0
1.811765 0.015873 0.0
1.823529 0.015873 0.0
1.835294 0.015873 0.0
1.847059 0.015873 0.0
1.858824 0.015873 0.0
1.870588 0.015873 0.0
1.882353 0.015873 0.0
1.894118 0.015873 0.0
1.905882 0.015873 0.0
1.917647 0.015873 0.0
1.929412 0.015873 0.0
1.941177 0.015873 0.0
1.952941 0.015873 0.0
1.964706 0.015873 0.0
1.976471 0.015873 0.0
1.988235 0.015873 0.0
2.000000 0.015873 0.0
2.011765 0.015873 0.0
2.023530 0.015873 0.0
2.035294 0.015873 0.0
2.047059 0.015873 0.0
2.058824 0.015873 0.0
2.070588 0.015873 0.0
2.082353 0.015873 0.0
2.094118 0.015873 0.0
2.105882 0.015873 0.0
2.117647 0.015873 0.0
2.129412 0.015873 0.0
2.141176 0.015873 0.0
2.152941 0.015873 0.0
2.164706 0.015873 0.0
2.176471 0.015873 0.0
2.188235 0.015873 0.0
2.200000 0.015873 0.0
2.211765 0.015873 0.0
2.223529 0.015873 0.0
2.235294 0.015873 0.0
2.247059 0.015873 0.0
2.258824 0.015873 0.0
2.270588 0.015873 0.0
2.282353 0.015873 0.0
[...]
POINT_DATA 16384
VECTORS attr0 float
0.000000 0.000000 0.0
0.000000 0.000000 0.0
0.000000 0.000000 0.0
0.000000 0.000000 0.0
0.000000 0.000000 0.0
0.000000 0.000000 0.0
0.000000 0.000000 0.0
0.000000 0.000000 0.0
0.000000 0.000000 0.0
0.000000 0.000000 0.0
0.000000 0.000000 0.0
0.000000 0.000000 0.0
0.000000 0.000000 0.0
0.000000 0.000000 0.0
0.000000 0.000000 0.0
0.000000 0.000000 0.0
0.000000 0.000000 0.0
0.000000 0.000000 0.0
0.000000 0.000000 0.0
0.000000 0.000000 0.0
0.000000 0.000000 0.0
0.000000 0.000000 0.0
0.000000 0.000000 0.0
0.000000 0.000000 0.0
0.000000 0.000000 0.0
0.000000 0.000000 0.0
0.000000 0.000000 0.0
0.000000 0.000000 0.0
0.000000 0.000000 0.0
0.000000 0.000000 0.0
0.000000 0.000000 0.0
0.000000 0.000000 0.0
0.000000 0.000000 0.0
0.000000 0.000000 0.0
0.000000 0.000000 0.0
0.000000 0.000000 0.0
0.000000 0.000000 0.0
0.000000 0.000000 0.0
0.000000 0.000000 0.0
0.000000 0.000000 0.0
0.000000 0.000000 0.0
0.000000 0.000000 0.0
0.000000 0.000000 0.0
0.000000 0.000000 0.0
0.000000 0.000000 0.0
0.000000 0.000000 0.0
0.000000 0.000000 0.0
0.000000 0.000000 0.0
0.000000 0.000000 0.0
0.000000 0.000000 0.0
0.000000 0.000000 0.0
0.000000 0.000000 0.0
0.000000 0.000000 0.0
0.000000 0.000000 0.0
0.000000 0.000000 0.0
0.000000 0.000000 0.0
0.000000 0.000000 0.0
0.000000 0.000000 0.0
0.000000 0.000000 0.0
0.000000 0.000000 0.0
0.000000 0.000000 0.0
0.000000 0.000000 0.0
0.000000 0.000000 0.0
0.000000 0.000000 0.0
0.000000 0.000000 0.0
0.000000 0.000000 0.0
0.000000 0.000000 0.0
0.000000 0.000000 0.0
0.000000 0.000000 0.0
0.000000 0.000000 0.0
0.000000 0.000000 0.0
0.000000 0.000000 0.0
0.000000 0.000000 0.0
0.000000 0.000000 0.0
0.000000 0.000000 0.0
0.000000 0.000000 0.0
0.000000 0.000000 0.0
0.000000 0.000000 0.0
0.000000 0.000000 0.0
0.000000 0.000000 0.0
0.000000 0.000000 0.0
0.000000 0.000000 0.0
0.000000 0.000000 0.0
0.000000 0.000000 0.0
0.000000 0.000000 0.0
0.000000 0.000000 0.0
0.000000 0.000000 0.0
0.000000 0.000000 0.0
0.000000 0.000000 0.0
0.000000 0.000000 0.0
0.000000 0.000000 0.0
0.000000 0.000000 0.0
0.000000 0.000000 0.0
0.000000 0.000000 0.0
0.000000 0.000000 0.0
0.000000 0.000000 0.0
0.000000 0.000000 0.0
0.000000 0.000000 0.0
0.000000 0.000000 0.0
0.000000 0.000000 0.0
0.000000 0.000000 0.0
0.000000 0.000000 0.0
0.000000 0.000000 0.0
0.000000 0.000000 0.0
0.000000 0.000000 0.0
0.000000 0.000000 0.0
0.000000 0.000000 0.0
0.000000 0.000000 0.0
0.000000 0.000000 0.0
0.000000 0.000000 0.0
0.000000 0.000000 0.0
0.000000 0.000000 0.0
0.000000 0.000000 0.0
0.000000 0.000000 0.0
0.000000 0.000000 0.0
0.000000 0.000000 0.0
0.000000 0.000000 0.0
0.000000 0.000000 0.0
0.000000 0.000000 0.0
0.000000 0.000000 0.0
0.000000 0.000000 0.0
0.000000 0.000000 0.0
0.000000 0.000000 0.0
0.000000 0.000000 0.0
0.000000 0.000000 0.0
0.000000 0.000000 0.0
0.000000 0.000000 0.0
0.000000 0.000000 0.0
0.000000 0.000000 0.0
0.000000 0.000000 0.0
0.000000 0.000000 0.0
0.000000 0.000000 0.0
0.000000 0.000000 0.0
0.000000 0.000000 0.0
0.000000 0.000000 0.0
0.000000 0.000000 0.0
0.000000 0.000000 0.0
0.000000 0.000000 0.0
0.000000 0.000000 0.0
0.000000 0.000000 0.0
0.000000 0.000000 0.0
0.000000 0.000000 0.0
0.000000 0.000000 0.0
0.000000 0.000000 0.0
0.000000 0.000000 0.0
0.000000 0.000000 0.0
0.000000 0.000000 0.0
0.000000 0.000000 0.0
0.000000 0.000000 0.0
0.000000 0.000000 0.0
0.000000 0.000000 0.0
0.000000 0.000000 0.0
0.000000 0.000000 0.0
0.000000 0.000000 0.0
0.000000 0.000000 0.0
0.000000 0.000000 0.0
0.000000 0.000000 0.0
0.000000 0.000000 0.0
0.000000 0.000000 0.0
0.000000 0.000000 0.0
0.000000 0.000000 0.0
0.000000 0.000000 0.0
0.000000 0.000000 0.0
0.000000 0.000000 0.0
0.000000 0.000000 0.0
0.000000 0.000000 0.0
0.000000 0.000000 0.0
0.000000 0.000000 0.0
0.000000 0.000000 0.0
0.000000 0.000000 0.0
0.000000 0.000000 0.0
0.000000 0.000000 0.0
0.000000 0.000000 0.0
0.000000 0.000000 0.0
0.000000 0.000000 0.0
0.000000 0.000000 0.0
0.000000 0.000000 0.0
0.000000 0.000000 0.0
0.000000 0.000000 0.0
0.000000 0.000000 0.0
0.000000 0.000000 0.0
0.000000 0.000000 0.0
0.000000 0.000000 0.0
0.000000 0.000000 0.0
0.000000 0.000000 0.0
0.000000 0.000000 0.0
0.000000 0.000000 0.0
0.000000 0.000000 0.0
0.000000 0.000000 0.0
0.000000 0.000000 0.0
0.000000 0.000000 0.0
0.000000 0.000000 0.0
0.000000 0.000000 0.0
0.000000 0.000000 0.0
0.000000 0.000000 0.0
0.000000 0.000000 0.0
0.000000 0.000000 0.0
0.000000 0.000000 0.0
0.000000 0.000000 0.0
0.000000 0.000000 0.0
0.000000 0.000000 0.0
0.000000 0.000000 0.0
0.000000 0.000000 0.0
0.000000 0.000000 0.0
0.000000 0.000000 0.0
0.000000 0.000000 0.0
0.000000 0.000000 0.0
0.000000 0.000000 0.0
0.000000 0.000000 0.0
0.000000 0.000000 0.0
0.000000 0.000000 0.0
0.000000 0.000000 0.0
0.000000 0.000000 0.0
0.000000 0.000000 0.0
0.000000 0.000000 0.0
0.000000 0.000000 0.0
0.000000 0.000000 0.0
0.000000 0.000000 0.0
0.000000 0.000000 0.0
0.000000 0.000000 0.0
0.000000 0.000000 0.0
0.000000 0.000000 0.0
0.000000 0.000000 0.0
0.000000 0.000000 0.0
0.000000 0.000000 0.0
0.000000 0.000000 0.0
0.000000 0.000000 0.0
0.000000 0.000000 0.0
0.000000 0.000000 0.0
0.000000 0.000000 0.0
0.000000 0.000000 0.0
0.000000 0.000000 0.0
0.000000 0.000000 0.0
0.000000 0.000000 0.0
0.000000 0.000000 0.0
0.000000 0.000000 0.0
0.000000 0.000000 0.0
0.000000 0.000000 0.0
0.000000 0.000000 0.0
0.000000 0.000000 0.0
0.000000 0.000000 0.0
0.000000 0.000000 0.0
0.000000 0.000000 0.0
0.000000 0.000000 0.0
0.000000 0.000000 0.0
0.000000 0.000000 0.0
0.000000 0.000000 0.0
0.000000 0.000000 0.0
0.000000 0.000000 0.0
0.000000 0.000000 0.0
0.000000 0.000000 0.0
0.000000 0.000000 0.0
0.000000 0.000000 0.0
0.000000 0.000000 0.0
0.000000 0.000000 0.0
0.000000 1.000000 0.0
0.000000 0.000000 0.0
0.000000 -0.000000 0.0
0.000000 -0.000000 0.0
0.000000 -0.000000 0.0
0.000000 -0.000000 0.0
0.000000 -0.000000 0.0
0.000000 -0.000000 0.0
0.000000 -0.000000 0.0
0.000000 -0.000000 0.0
0.000000 -0.000000 0.0
0.000000 -0.000000 0.0
0.000000 -0.000000 0.0
0.000000 -0.000000 0.0
0.000000 -0.000000 0.0
0.000000 -0.000000 0.0
0.000000 -0.000000 0.0
0.000000 -0.000000 0.0
0.000000 -0.000000 0.0
0.000000 0.000000 0.0
0.000000 0.000000 0.0
0.000000 0.000000 0.0
0.000000 0.000000 0.0
0.000000 0.000000 0.0
0.000000 0.000000 0.0
0.000000 0.000000 0.0
0.000000 0.000000 0.0
-0.000000 0.000000 0.0
-0.000000 0.000000 0.0
-0.000000 0.000000 0.0
-0.000000 0.000000 0.0
-0.000000 0.000000 0.0
-0.000000 0.000000 0.0
-0.000000 0.000000 0.0
-0.000001 0.000000 0.0
-0.000001 0.000000 0.0
-0.000001 0.000000 0.0
-0.000001 0.000000 0.0
-0.000001 0.000000 0.0
-0.000001 0.000000 0.0
-0.000001 0.000000 0.0
-0.000002 0.000000 0.0
-0.000002 0.000000 0.0
-0.000002 0.000000 0.0
-0.000002 0.000000 0.0
-0.000003 0.000000 0.0
-0.000003 0.000000 0.0
-0.000003 0.000000 0.0
-0.000004 0.000000 0.0
-0.000004 0.000000 0.0
-0.000004 0.000000 0.0
-0.000005 0.000000 0.0
-0.000005 0.000000 0.0
-0.000006 0.000000 0.0
-0.000006 0.000000 0.0
-0.000007 0.000000 0.0
-0.000007 0.000000 0.0
-0.000008 0.000000 0.0
-0.000008 0.000000 0.0
-0.000009 0.000000 0.0
-0.000010 0.000001 0.0
-0.000011 0.000001 0.0
-0.000011 0.000001 0.0
-0.000012 0.000001 0.0
-0.000013 0.000001 0.0
-0.000014 0.000001 0.0
-0.000015 0.000001 0.0
-0.000016 0.000001 0.0
-0.000017 0.000001 0.0
-0.000018 0.000001 0.0
-0.000020 0.000001 0.0
-0.000021 0.000001 0.0
-0.000022 0.000001 0.0
-0.000024 0.000001 0.0
-0.000025 0.000001 0.0
-0.000027 0.000001 0.0
-0.000028 0.000001 0.0
-0.000030 0.000001 0.0
-0.000032 0.000001 0.0
-0.000034 0.000001 0.0
-0.000036 0.000001 0.0
-0.000038 0.000001 0.0
-0.000040 0.000002 0.0
-0.000042 0.000002 0.0
-0.000044 0.000002 0.0
-0.000047 0.000002 0.0
-0.000049 0.000002 0.0
-0.000052 0.000002 0.0
-0.000055 0.000002 0.0
-0.000058 0.000002 0.0
-0.000060 0.000002 0.0
-0.000063 0.000002 0.0
-0.000067 0.000002 0.0
-0.000070 0.000002 0.0
-0.000073 0.000002 0.0
-0.000077 0.000002 0.0
-0.000080 0.000003 0.0
-0.000084 0.000003 0.0
-0.000087 0.000003 0.0
-0.000091 0.000003 0.0
-0.000095 0.000003 0.0
-0.000099 0.000003 0.0
-0.000103 0.000003 0.0
-0.000107 0.000003 0.0
-0.000112 0.000003 0.0
-0.000116 0.000003 0.0
-0.000120 0.000003 0.0
-0.000125 0.000003 0.0
-0.000129 0.000003 0.0
-0.000134 0.000003 0.0
-0.000139 0.000003 0.0
-0.000143 0.000003 0.0
-0.000148 0.000003 0.0
-0.000153 0.000003 0.0
-0.000157 0.000003 0.0
-0.000162 0.000003 0.0
-0.000166 0.000003 0.0
-0.000171 0.000003 0.0
-0.000175 0.000003 0.0
-0.000179 0.000003 0.0
-0.000183 0.000003 0.0
-0.000187 0.000003 0.0
-0.000190 0.000003 0.0
-0.000194 0.000003 0.0
-0.000197 0.000002 0.0
-0.000200 0.000002 0.0
-0.000202 0.000002 0.0
-0.000204 0.000002 0.0
-0.000205 0.000001 0.0
-0.000206 0.000001 0.0
-0.000206 0.000001 0.0
-0.000206 0.000000 0.0
-0.000205 -0.000000 0.0
-0.000203 -0.000001 0.0
-0.000200 -0.000002 0.0
-0.000197 -0.000002 0.0
-0.000192 -0.000003 0.0
-0.000186 -0.000004 0.0
-0.000179 -0.000005 0.0
-0.000171 -0.000005 0.0
-0.000161 -0.000006 0.0
-0.000150 -0.000008 0.0
-0.000137 -0.000009 0.0
-0.000122 -0.000010 0.0
-0.000105 -0.000011 0.0
-0.000086 -0.000013 0.0
-0.000065 -0.000014 0.0
-0.000041 -0.000016 0.0
-0.000015 -0.000018 0.0
0.000014 -0.000020 0.0
0.000046 -0.000022 0.0
0.000081 -0.000024 0.0
0.000119 -0.000027 0.0
0.000161 -0.000029 0.0
0.000207 -0.000032 0.0
0.000257 -0.000035 0.0
0.000312 -0.000038 0.0
0.000371 -0.000041 0.0
0.000435 -0.000045 0.0
0.000504 -0.000048 0.0
0.000578 -0.000052 0.0
0.000659 -0.000056 0.0
0.000746 -0.000061 0.0
0.000839 -0.000065 0.0
0.000939 -0.000070 0.0
0.001047 -0.000075 0.0
0.001162 -0.000081 0.0
0.001285 -0.000087 0.0
0.001418 -0.000093 0.0
0.001559 -0.000099 0.0
0.001709 -0.000106 0.0
0.001870 -0.000113 0.0
0.002041 -0.000121 0.0
0.002224 -0.000129 0.0
0.002418 -0.000137 0.0
0.002624 -0.000145 0.0
0.002843 -0.000155 0.0
0.003075 -0.000164 0.0
0.003322 -0.000174 0.0
0.003583 -0.000185 0.0
0.003860 -0.000196 0.0
0.004152 -0.000207 0.0
0.004462 -0.000219 0.0
0.004789 -0.000232 0.0
0.005135 -0.000245 0.0
0.005499 -0.000259 0.0
0.005884 -0.000273 0.0
0.006289 -0.000288 0.0
0.006716 -0.000303 0.0
0.007166 -0.000319 0.0
0.007639 -0.000336 0.0
0.008136 -0.000354 0.0
0.008659 -0.000372 0.0
0.009208 -0.000391 0.0
0.009784 -0.000410 0.0
0.010389 -0.000431 0.0
0.011023 -0.000452 0.0
0.011687 -0.000474 0.0
0.012384 -0.000497 0.0
0.013112 -0.000520 0.0
0.013875 -0.000545 0.0
0.014673 -0.000570 0.0
0.015507 -0.000597 0.0
0.016379 -0.000624 0.0
0.017290 -0.000653 0.0
0.018242 -0.000682 0.0
0.019235 -0.000713 0.0
0.020272 -0.000744 0.0
0.021353 -0.000777 0.0
0.022481 -0.000811 0.0
0.023658 -0.000847 0.0
0.024885 -0.000884 0.0
0.026164 -0.000923 0.0
0.027497 -0.000963 0.0
0.028887 -0.001005 0.0
0.030336 -0.001049 0.0
0.031846 -0.001096 0.0
0.033421 -0.001144 0.0
0.035064 -0.001195 0.0
0.036778 -0.001250 0.0
0.038568 -0.001307 0.0
0.040437 -0.001368 0.0
0.042390 -0.001434 0.0
0.044433 -0.001503 0.0
0.046572 -0.001579 0.0
0.048814 -0.001660 0.0
0.051168 -0.001748 0.0
0.053641 -0.001845 0.0
0.056245 -0.001951 0.0
0.058993 -0.002067 0.0
0.061897 -0.002197 0.0
0.064974 -0.002342 0.0
0.068244 -0.002504 0.0
0.071730 -0.002688 0.0
0.075457 -0.002897 0.0
0.079457 -0.003137 0.0
0.083769 -0.003415 0.0
0.088437 -0.003739 0.0
0.093516 -0.004120 0.0
0.099074 -0.004573 0.0
0.105191 -0.005116 0.0
0.111967 -0.005777 0.0
0.119530 -0.006592 0.0
0.128034 -0.007610 0.0
0.137677 -0.008906 0.0
0.148708 -0.010588 0.0
0.161437 -0.012816 0.0
0.176246 -0.015834 0.0
0.193581 -0.020004 0.0
0.213890 -0.025835 0.0
0.237437 -0.033925 0.0
0.263783 -0.044526 0.0
0.290495 -0.055792 0.0
0.310154 -0.057702 0.0
0.303868 -0.012494 0.0
0.228825 0.206292 0.0
0.000000 1.000000 0.0
0.000000 0.000000 0.0
0.000000 -0.000000 0.0
0.000000 -0.000000 0.0
0.000000 -0.000000 0.0
0.000000 -0.000000 0.0
0.000000 -0.000000 0.0
0.000000 -0.000000 0.0
0.000000 -0.000000 0.0
0.000000 -0.000000 0.0
0.000000 -0.000000 0.0
0.000000 -0.000000 0.0
0.000000 -0.000000 0.0
0.000000 -0.000000 0.0
0.000000 -0.000000 0.0
0.000000 -0.000000 0.0
0.000000 -0.000000 0.0
0.000000 -0.000000 0.0
0.000000 0.000000 0.0
0.000000 0.000000 0.0
0.000000 0.000000 0.0
0.000000 0.000000 0.0
0.000000 0.000000 0.0
0.000000 0.000000 0.0
0.000000 0.000000 0.0
-0.000000 0.000000 0.0
-0.000000 0.000000 0.0
-0.000000 0.000000 0.0
-0.000000 0.000000 0.0
-0.000000 0.000000 0.0
-0.000001 0.000000 0.0
-0.000001 0.000000 0.0
-0.000001 0.000000 0.0
-0.000001 0.000000 0.0
-0.000001 0.000000 0.0
-0.000002 0.000000 0.0
-0.000002 0.000000 0.0
-0.000002 0.000000 0.0
-0.000002 0.000000 0.0
-0.000003 0.000000 0.0
-0.000003 0.000001 0.0
-0.000004 0.000001 0.0
-0.000004 0.000001 0.0
-0.000004 0.000001 0.0
-0.000005 0.000001 0.0
-0.000005 0.000001 0.0
-0.000006 0.000001 0.0
-0.000007 0.000001 0.0
-0.000007 0.000001 0.0
-0.000008 0.000001 0.0
-0.000009 0.000001 0.0
-0.000010 0.000001 0.0
-0.000010 0.000001 0.0
-0.000011 0.000001 0.0
-0.000012 0.000001 0.0
-0.000013 0.000001 0.0
-0.000015 0.000002 0.0
-0.000016 0.000002 0.0
-0.000017 0.000002 0.0
-0.000018 0.000002 0.0
-0.000020 0.000002 0.0
-0.000021 0.000002 0.0
-0.000023 0.000002 0.0
-0.000024 0.000002 0.0
-0.000026 0.000002 0.0
-0.000028 0.000003 0.0
-0.000030 0.000003 0.0
-0.000032 0.000003 0.0
-0.000034 0.000003 0.0
-0.000036 0.000003 0.0
-0.000039 0.000003 0.0
-0.000041 0.000004 0.0
-0.000044 0.000004 0.0
-0.000047 0.000004 0.0
-0.000050 0.000004 0.0
-0.000053 0.000004 0.0
-0.000056 0.000005 0.0
-0.000059 0.000005 0.0
-0.000063 0.000005 0.0
-0.000066 0.000005 0.0
-0.000070 0.000005 0.0
-0.000074 0.000006 0.0
-0.000078 0.000006 0.0
-0.000082 0.000006 0.0
-0.000087 0.000006 0.0
-0.000091 0.000007 0.0
-0.000096 0.000007 0.0
-0.000101 0.000007 0.0
-0.000106 0.000007 0.0
-0.000112 0.000008 0.0
-0.000117 0.000008 0.0
-0.000123 0.000008 0.0
-0.000129 0.000009 0.0
-0.000135 0.000009 0.0
-0.000141 0.000009 0.0
-0.000148 0.000009 0.0
-0.000155 0.000010 0.0
-0.000161 0.000010 0.0
-0.000168 0.000010 0.0
-0.000176 0.000010 0.0
-0.000183 0.000011 0.0
-0.000191 0.000011 0.0
-0.000198 0.000011 0.0
-0.000206 0.000011 0.0
-0.000214 0.000012 0.0
-0.000222 0.000012 0.0
-0.000231 0.000012 0.0
-0.000239 0.000012 0.0
-0.000247 0.000012 0.0
-0.000256 0.000012 0.0
-0.000264 0.000012 0.0
-0.000273 0.000012 0.0
-0.000281 0.000012 0.0
-0.000290 0.000012 0.0
-0.000298 0.000012 0.0
-0.000306 0.000012 0.0
-0.000314 0.000012 0.0
-0.000322 0.000012 0.0
-0.000330 0.000011 0.0
-0.000337 0.000011 0.0
-0.000344 0.000011 0.0
-0.000350 0.000010 0.0
-0.000357 0.000009 0.0
-0.000362 0.000009 0.0
-0.000367 0.000008 0.0
-0.000371 0.000007 0.0
-0.000374 0.000006 0.0
-0.000377 0.000004 0.0
-0.000378 0.000003 0.0
-0.000379 0.000002 0.0
-0.000378 -0.000000 0.0
-0.000376 -0.000002 0.0
-0.000372 -0.000004 0.0
-0.000367 -0.000006 0.0
-0.000360 -0.000009 0.0
-0.000351 -0.000011 0.0
-0.000340 -0.000014 0.0
-0.000327 -0.000017 0.0
-0.000311 -0.000021 0.0
-0.000292 -0.000025 0.0
-0.000271 -0.000029 0.0
-0.000247 -0.000033 0.0
-0.000219 -0.000038 0.0
-0.000187 -0.000043 0.0
-0.000152 -0.000048 0.0
-0.000113 -0.000054 0.0
-0.000069 -0.000060 0.0
-0.000020 -0.000067 0.0
0.000034 -0.000074 0.0
0.000094 -0.000082 0.0
0.000159 -0.000090 0.0
0.000230 -0.000099 0.0
0.000309 -0.000109 0.0
0.000394 -0.000119 0.0
0.000487 -0.000129 0.0
0.000588 -0.000141 0.0
0.000698 -0.000153 0.0
0.000817 -0.000166 0.0
0.000945 -0.000180 0.0
0.001084 -0.000194 0.0
0.001233 -0.000209 0.0
0.001394 -0.000226 0.0
0.001567 -0.000243 0.0
0.001753 -0.000261 0.0
0.001953 -0.000280 0.0
0.002166 -0.000301 0.0
0.002395 -0.000322 0.0
0.002640 -0.000345 0.0
0.002902 -0.000369 0.0
0.003181 -0.000394 0.0
0.003479 -0.000420 0.0
0.003796 -0.000448 0.0
0.004134 -0.000477 0.0
0.004494 -0.000508 0.0
0.004876 -0.000540 0.0
0.005281 -0.000574 0.0
0.005712 -0.000609 0.0
0.006168 -0.000646 0.0
0.006652 -0.000685 0.0
0.007164 -0.000726 0.0
0.007706 -0.000768 0.0
0.008279 -0.000813 0.0
0.008884 -0.000859 0.0
0.009523 -0.000908 0.0
0.010198 -0.000958 0.0
0.010909 -0.001011 0.0
0.011659 -0.001066 0.0
0.012449 -0.001123 0.0
0.013280 -0.001183 0.0
0.014154 -0.001245 0.0
0.015073 -0.001309 0.0
0.016039 -0.001376 0.0
0.017053 -0.001446 0.0
0.018117 -0.001518 0.0
0.019234 -0.001593 0.0
0.020404 -0.001671 0.0
0.021630 -0.001752 0.0
0.022914 -0.001836 0.0
0.024258 -0.001923 0.0
0.025664 -0.002012 0.0
0.027135 -0.002106 0.0
0.028671 -0.002202 0.0
0.030277 -0.002302 0.0
0.031953 -0.002406 0.0
0.033703 -0.002513 0.0
0.035529 -0.002624 0.0
0.037433 -0.002739 0.0
0.039418 -0.002858 0.0
0.041487 -0.002981 0.0
0.043643 -0.003110 0.0
0.045889 -0.003243 0.0
0.048228 -0.003381 0.0
0.050664 -0.003524 0.0
0.053199 -0.003674 0.0
0.055839 -0.003830 0.0
0.058586 -0.003993 0.0
0.061446 -0.004163 0.0
0.064424 -0.004342 0.0
0.067524 -0.004529 0.0
0.070752 -0.004727 0.0
0.074116 -0.004936 0.0
0.077621 -0.005157 0.0
0.081276 -0.005392 0.0
0.085089 -0.005643 0.0
0.089071 -0.005911 0.0
0.093232 -0.006200 0.0
0.097584 -0.006512 0.0
0.102143 -0.006851 0.0
0.106924 -0.007220 0.0
0.111945 -0.007625 0.0
0.117227 -0.008070 0.0
0.122795 -0.008564 0.0
0.128676 -0.009114 0.0
0.134903 -0.009731 0.0
0.141511 -0.010426 0.0
0.148545 -0.011215 0.0
0.156053 -0.012116 0.0
0.164094 -0.013152 0.0
0.172733 -0.014351 0.0
0.182048 -0.015751 0.0
0.192127 -0.017396 0.0
0.203072 -0.019346 0.0
0.214993 -0.021677 0.0
0.228013 -0.024485 0.0
0.242251 -0.027893 0.0
0.257810 -0.032057 0.0
0.274735 -0.037155 0.0
0.292932 -0.043369 0.0
0.312021 -0.050789 0.0
0.331044 -0.059171 0.0
0.347937 -0.067315 0.0
0.358630 -0.071587 0.0
0.355676 -0.062564 0.0
0.326752 -0.018043 0.0
0.255226 0.109729 0.0
0.131132 0.409981 0.0
0.000000 1.000000 0.0
0.000000 0.000000 0.0
0.000000 -0.000000 0.0
0.000000 -0.000000 0.0
0.000000 -0.000000 0.0
0.000000 -0.000000 0.0
0.000000 -0.000000 0.0
0.000000 -0.000000 0.0
0.000000 -0.000000 0.0
0.000000 -0.000000 0.0
0.000000 -0.000000 0.0
0.000000 -0.000000 0.0
0.000000 -0.000000 0.0
0.000000 -0.000000 0.0
0.000000 -0.000000 0.0
0.000000 -0.000000 0.0
0.000000 -0.000000 0.0
0.000000 0.000000 0.0
0.000000 0.000000 0.0
0.000000 0.000000 0.0
0.000000 0.000000 0.0
0.000000 0.000000 0.0
0.000000 0.000000 0.0
0.000000 0.000000 0.0
-0.000000 0.000000 0.0
-0.000000 0.000000 0.0
-0.000000 0.000000 0.0
-0.000000 0.000000 0.0
-0.000001 0.000000 0.0
-0.000001 0.000000 0.0
-0.000001 0.000000 0.0
-0.000001 0.000001 0.0
-0.000002 0.000001 0.0
-0.000002 0.000001 0.0
-0.000002 0.000001 0.0
-0.000003 0.000001 0.0
-0.000003 0.000001 0.0
-0.000003 0.000001 0.0
-0.000004 0.000001 0.0
-0.000004 0.000001 0.0
-0.000005 0.000001 0.0
-0.000006 0.000001 0.0
-0.000006 0.000001 0.0
-0.000007 0.000001 0.0
-0.000008 0.000002 0.0
-0.000008 0.000002 0.0
-0.000009 0.000002 0.0
-0.000010 0.000002 0.0
-0.000011 0.000002 0.0
-0.000012 0.000002 0.0
-0.000013 0.000002 0.0
-0.000015 0.000003 0.0
-0.000016 0.000003 0.0
-0.000017 0.000003 0.0
-0.000019 0.000003 0.0
-0.000020 0.000003 0.0
-0.000022 0.000003 0.0
-0.000024 0.000004 0.0
-0.000025 0.000004 0.0
-0.000027 0.000004 0.0
-0.000029 0.000004 0.0
-0.000031 0.000005 0.0
-0.000034 0.000005 0.0
-0.000036 0.000005 0.0
-0.000039 0.000005 0.0
-0.000041 0.000006 0.0
-0.000044 0.000006 0.0
-0.000047 0.000006 0.0
-0.000050 0.000007 0.0
-0.000054 0.000007 0.0
-0.000057 0.000007 0.0
-0.000061 0.000008 0.0
-0.000065 0.000008 0.0
-0.000069 0.000009 0.0
-0.000073 0.000009 0.0
-0.000077 0.000009 0.0
-0.000082 0.000010 0.0
-0.000087 0.000010 0.0
-0.000092 0.000011 0.0
-0.000097 0.000011 0.0
-0.000102 0.000012 0.0
-0.000108 0.000012 0.0
-0.000114 0.000013 0.0
-0.000120 0.000013 0.0
-0.000126 0.000014 0.0
-0.000133 0.000014 0.0
-0.000140 0.000015 0.0
-0.000147 0.000016 0.0
-0.000155 0.000016 0.0
-0.000162 0.000017 0.0
-0.000170 0.000017 0.0
-0.000178 0.000018 0.0
-0.000187 0.000018 0.0
-0.000196 0.000019 0.0
-0.000205 0.000020 0.0
-0.000214 0.000020 0.0
-0.000223 0.000021 0.0
-0.000233 0.000021 0.0
-0.000243 0.000022 0.0
-0.000253 0.000022 0.0
-0.000264 0.000023 0.0
-0.000274 0.000024 0.0
-0.000285 0.000024 0.0
-0.000296 0.000024 0.0
-0.000307 0.000025 0.0
-0.000319 0.000025 0.0
-0.000330 0.000026 0.0
-0.000342 0.000026 0.0
-0.000353 0.000026 0.0
-0.000365 0.000026 0.0
-0.000377 0.000026 0.0