# vtk DataFile Version 3.0
grids
ASCII
DATASET POLYDATA
POINTS 5694 float
0.000000 0.000000 0.0
0.011765 0.000000 0.0
0.023529 0.000000 0.0
0.035294 0.000000 0.0
0.047059 0.000000 0.0
0.058824 0.000000 0.0
0.070588 0.000000 0.0
0.082353 0.000000 0.0
0.094118 0.000000 0.0
0.105882 0.000000 0.0
0.117647 0.000000 0.0
0.129412 0.000000 0.0
0.141176 0.000000 0.0
0.152941 0.000000 0.0
0.164706 0.000000 0.0
0.176471 0.000000 0.0
0.188235 0.000000 0.0
0.200000 0.000000 0.0
0.211765 0.000000 0.0
0.223529 0.000000 0.0
0.235294 0.000000 0.0
0.247059 0.000000 0.0
0.258824 0.000000 0.0
0.270588 0.000000 0.0
0.282353 0.000000 0.0
0.294118 0.000000 0.0
0.305882 0.000000 0.0
0.317647 0.000000 0.0
0.329412 0.000000 0.0
0.341176 0.000000 0.0
0.352941 0.000000 0.0
0.364706 0.000000 0.0
0.376471 0.000000 0.0
0.388235 0.000000 0.0
0.400000 0.000000 0.0
0.411765 0.000000 0.0
0.423529 0.000000 0.0
0.435294 0.000000 0.0
0.447059 0.000000 0.0
0.458824 0.000000 0.0
0.470588 0.000000 0.0
0.482353 0.000000 0.0
0.494118 0.000000 0.0
0.505882 0.000000 0.0
0.517647 0.000000 0.0
0.529412 0.000000 0.0
0.541176 0.000000 0.0
0.552941 0.000000 0.0
0.564706 0.000000 0.0
0.576471 0.000000 0.0
0.588235 0.000000 0.0
0.600000 0.000000 0.0
0.611765 0.000000 0.0
0.623529 0.000000 0.0
0.635294 0.000000 0.0
0.647059 0.000000 0.0
0.658824 0.000000 0.0
0.670588 0.000000 0.0
0.682353 0.000000 0.0
0.694118 0.000000 0.0
0.705882 0.000000 0.0
0.717647 0.000000 0.0
0.729412 0.000000 0.0
0.741176 0.000000 0.0
0.752941 0.000000 0.0
0.764706 0.000000 0.0
0.776471 0.000000 0.0
0.788235 0.000000 0.0
0.800000 0.000000 0.0
0.811765 0.000000 0.0
0.823529 0.000000 0.0
0.835294 0.000000 0.0
0.847059 0.000000 0.0
0.858824 0.000000 0.0
0.870588 0.000000 0.0
0.882353 0.000000 0.0
0.894118 0.000000 0.0
0.905882 0.000000 0.0
0.917647 0.000000 0.0
0.929412 0.000000 0.0
0.941176 0.000000 0.0
0.952941 0.000000 0.0
0.964706 0.000000 0.0
0.976471 0.000000 0.0
0.988235 0.000000 0.0
1.000000 0.000000 0.0
1.011765 0.000000 0.0
1.023529 0.000000 0.0
1.035294 0.000000 0.0
1.047059 0.000000 0.0
1.058824 0.000000 0.0
1.070588 0.000000 0.0
1.082353 0.000000 0.0
1.094118 0.000000 0.0
1.105882 0.000000 0.0
1.117647 0.000000 0.0
1.129412 0.000000 0.0
1.141176 0.000000 0.0
1.152941 0.000000 0.0
1.164706 0.000000 0.0
1.176471 0.000000 0.0
1.188235 0.000000 0.0
1.200000 0.000000 0.0
1.211765 0.000000 0.0
1.223529 0.000000 0.0
1.235294 0.000000 0.0
1.247059 0.000000 0.0
1.258824 0.000000 0.0
1.270588 0.000000 0.0
1.282353 0.000000 0.0
1.294118 0.000000 0.0
1.305882 0.000000 0.0
1.317647 0.000000 0.0
1.329412 0.000000 0.0
1.341177 0.000000 0.0
1.352941 0.000000 0.0
1.364706 0.000000 0.0
1.376471 0.000000 0.0
1.388235 0.000000 0.0
1.400000 0.000000 0.0
1.411765 0.000000 0.0
1.423529 0.000000 0.0
1.435294 0.000000 0.0
1.447059 0.000000 0.0
1.458824 0.000000 0.0
1.470588 0.000000 0.0
1.482353 0.000000 0.0
1.494118 0.000000 0.0
1.505882 0.000000 0.0
0.000000 0.015873 0.0
0.011765 0.015873 0.0
0.023529 0.015873 0.0
0.035294 0.015873 0.0
0.047059 0.015873 0.0
0.058824 0.015873 0.0
0.070588 0.015873 0.0
0.082353 0.015873 0.0
0.094118 0.015873 0.0
0.105882 0.015873 0.0
0.117647 0.015873 0.0
0.129412 0.015873 0.0
0.141176 0.015873 0.0
0.152941 0.015873 0.0
0.164706 0.015873 0.0
0.176471 0.015873 0.0
0.188235 0.015873 0.0
0.200000 0.015873 0.0
0.211765 0.015873 0.0
0.223529 0.015873 0.0
0.235294 0.015873 0.0
0.247059 0.015873 0.0
0.258824 0.015873 0.0
0.270588 0.015873 0.0
0.282353 0.015873 0.0
0.294118 0.015873 0.0
0.305882 0.015873 0.0
0.317647 0.015873 0.0
0.329412 0.015873 0.0
0.341176 0.015873 0.0
0.352941 0.015873 0.0
0.364706 0.015873 0.0
0.376471 0.015873 0.0
0.388235 0.015873 0.0
0.400000 0.015873 0.0
0.411765 0.015873 0.0
0.423529 0.015873 0.0
0.435294 0.015873 0.0
0.447059 0.015873 0.0
0.458824 0.015873 0.0
0.470588 0.015873 0.0
0.482353 0.015873 0.0
0.494118 0.015873 0.0
0.505882 0.015873 0.0
0.517647 0.015873 0.0
0.529412 0.015873 0.0
0.541176 0.015873 0.0
0.552941 0.015873 0.0
0.564706 0.015873 0.0
0.576471 0.015873 0.0
0.588235 0.015873 0.0
0.600000 0.015873 0.0
0.611765 0.015873 0.0
0.623529 0.015873 0.0
0.635294 0.015873 0.0
0.647059 0.015873 0.0
0.658824 0.015873 0.0
0.670588 0.015873 0.0
0.682353 0.015873 0.0
0.694118 0.015873 0.0
0.705882 0.015873 0.0
0.717647 0.015873 0.0
0.729412 0.015873 0.0
0.741176 0.015873 0.0
0.752941 0.015873 0.0
0.764706 0.015873 0.0
0.776471 0.015873 0.0
0.788235 0.015873 0.0
0.800000 0.015873 0.0
0.811765 0.015873 0.0
0.823529 0.015873 0.0
0.835294 0.015873 0.0
0.847059 0.015873 0.0
0.858824 0.015873 0.0
0.870588 0.015873 0.0
0.882353 0.015873 0.0
0.894118 0.015873 0.0
0.905882 0.015873 0.0
0.917647 0.015873 0.0
0.929412 0.015873 0.0
0.941176 0.015873 0.0
0.952941 0.015873 0.0
0.964706 0.015873 0.0
0.976471 0.015873 0.0
0.988235 0.015873 0.0
1.000000 0.015873 0.0
1.011765 0.015873 0.0
1.023529 0.015873 0.0
1.035294 0.015873 0.0
1.047059 0.015873 0.0
1.058824 0.015873 0.0
1.070588 0.015873 0.0
1.082353 0.015873 0.0
1.094118 0.015873 0.0
1.105882 0.015873 0.0
1.117647 0.015873 0.0
1.129412 0.015873 0.0
1.141176 0.015873 0.0
1.152941 0.015873 0.0
1.164706 0.015873 0.0
1.176471 0.015873 0.0
1.188235 0.015873 0.0
1.200000 0.015873 0.0
1.211765 0.015873 0.0
1.223529 0.015873 0.0
1.235294 0.015873 0.0
1.247059 0.015873 0.0
1.258824 0.015873 0.0
1.270588 0.015873 0.0
1.282353 0.015873 0.0
1.294118 0.015873 0.0
1.305882 0.015873 0.0
1.317647 0.015873 0.0
1.329412 0.015873 0.0
1.341177 0.015873 0.0
1.352941 0.015873 0.0
1.364706 0.015873 0.0
1.376471 0.015873 0.0
1.388235 0.015873 0.0
1.400000 0.015873 0.0
1.411765 0.015873 0.0
1.423529 0.015873 0.0
1.435294 0.015873 0.0
1.447059 0.015873 0.0
1.458824 0.015873 0.0
1.470588 0.015873 0.0
1.482353 0.015873 0.0
1.494118 0.015873 0.0
1.505882 0.015873 0.0
0.000000 0.031746 0.0
0.011765 0.031746 0.0
0.023529 0.031746 0.0
0.035294 0.031746 0.0
0.047059 0.031746 0.0
0.058824 0.031746 0.0
0.070588 0.031746 0.0
0.082353 0.031746 0.0
0.094118 0.031746 0.0
0.105882 0.031746 0.0
0.117647 0.031746 0.0
0.129412 0.031746 0.0
0.141176 0.031746 0.0
0.152941 0.031746 0.0
0.164706 0.031746 0.0
0.176471 0.031746 0.0
0.188235 0.031746 0.0
0.200000 0.031746 0.0
0.211765 0.031746 0.0
0.223529 0.031746 0.0
0.235294 0.031746 0.0
0.247059 0.031746 0.0
0.258824 0.031746 0.0
0.270588 0.031746 0.0
0.282353 0.031746 0.0
0.294118 0.031746 0.0
0.305882 0.031746 0.0
0.317647 0.031746 0.0
0.329412 0.031746 0.0
0.341176 0.031746 0.0
0.352941 0.031746 0.0
0.364706 0.031746 0.0
0.376471 0.031746 0.0
0.388235 0.031746 0.0
0.400000 0.031746 0.0
0.411765 0.031746 0.0
0.423529 0.031746 0.0
0.435294 0.031746 0.0
0.447059 0.031746 0.0
0.458824 0.031746 0.0
0.470588 0.031746 0.0
0.482353 0.031746 0.0
0.494118 0.031746 0.0
0.505882 0.031746 0.0
0.517647 0.031746 0.0
0.529412 0.031746 0.0
0.541176 0.031746 0.0
0.552941 0.031746 0.0
0.564706 0.031746 0.0
0.576471 0.031746 0.0
0.588235 0.031746 0.0
0.600000 0.031746 0.0
0.611765 0.031746 0.0
0.623529 0.031746 0.0
0.635294 0.031746 0.0
0.647059 0.031746 0.0
0.658824 0.031746 0.0
0.670588 0.031746 0.0
0.682353 0.031746 0.0
0.694118 0.031746 0.0
0.705882 0.031746 0.0
0.717647 0.031746 0.0
0.729412 0.031746 0.0
0.741176 0.031746 0.0
0.752941 0.031746 0.0
0.764706 0.031746 0.0
0.776471 0.031746 0.0
0.788235 0.031746 0.0
0.800000 0.031746 0.0
0.811765 0.031746 0.0
0.823529 0.031746 0.0
0.835294 0.031746 0.0
0.847059 0.031746 0.0
0.858824 0.031746 0.0
0.870588 0.031746 0.0
0.882353 0.031746 0.0
0.894118 0.031746 0.0
0.905882 0.031746 0.0
0.917647 0.031746 0.0
0.929412 0.031746 0.0
0.941176 0.031746 0.0
0.952941 0.031746 0.0
0.964706 0.031746 0.0
0.976471 0.031746 0.0
0.988235 0.031746 0.0
1.000000 0.031746 0.0
1.011765 0.031746 0.0
1.023529 0.031746 0.0
1.035294 0.031746 0.0
1.047059 0.031746 0.0
1.058824 0.031746 0.0
1.070588 0.031746 0.0
1.082353 0.031746 0.0
1.094118 0.031746 0.0
1.105882 0.031746 0.0
1.117647 0.031746 0.0
1.129412 0.031746 0.0
1.141176 0.031746 0.0
1.152941 0.031746 0.0
1.164706 0.031746 0.0
1.176471 0.031746 0.0
1.188235 0.031746 0.0
1.200000 0.031746 0.0
1.211765 0.031746 0.0
1.223529 0.031746 0.0
1.235294 0.031746 0.0
1.247059 0.031746 0.0
1.258824 0.031746 0.0
1.270588 0.031746 0.0
1.282353 0.031746 0.0
1.294118 0.031746 0.0
1.305882 0.031746 0.0
1.317647 0.031746 0.0
1.329412 0.031746 0.0
1.341177 0.031746 0.0
1.352941 0.031746 0.0
1.364706 0.031746 0.0
1.376471 0.031746 0.0
1.388235 0.031746 0.0
1.400000 0.031746 0.0
1.411765 0.031746 0.0
1.423529 0.031746 0.0
1.435294 0.031746 0.0
1.447059 0.031746 0.0
1.458824 0.031746 0.0
1.470588 0.031746 0.0
1.482353 0.031746 0.0
1.494118 0.031746 0.0
1.505882 0.031746 0.0
0.000000 0.047619 0.0
0.011765 0.047619 0.0
0.023529 0.047619 0.0
0.035294 0.047619 0.0
0.047059 0.047619 0.0
0.058824 0.047619 0.0
0.070588 0.047619 0.0
0.082353 0.047619 0.0
0.094118 0.047619 0.0
0.105882 0.047619 0.0
0.117647 0.047619 0.0
0.129412 0.047619 0.0
0.141176 0.047619 0.0
0.152941 0.047619 0.0
0.164706 0.047619 0.0
0.176471 0.047619 0.0
0.188235 0.047619 0.0
0.200000 0.047619 0.0
0.211765 0.047619 0.0
0.223529 0.047619 0.0
0.235294 0.047619 0.0
0.247059 0.047619 0.0
0.258824 0.047619 0.0
0.270588 0.047619 0.0
0.282353 0.047619 0.0
0.294118 0.047619 0.0
0.305882 0.047619 0.0
0.317647 0.047619 0.0
0.329412 0.047619 0.0
0.341176 0.047619 0.0
0.352941 0.047619 0.0
0.364706 0.047619 0.0
0.376471 0.047619 0.0
0.388235 0.047619 0.0
0.400000 0.047619 0.0
0.411765 0.047619 0.0
0.423529 0.047619 0.0
0.435294 0.047619 0.0
0.447059 0.047619 0.0
0.458824 0.047619 0.0
0.470588 0.047619 0.0
0.482353 0.047619 0.0
0.494118 0.047619 0.0
0.505882 0.047619 0.0
0.517647 0.047619 0.0
0.529412 0.047619 0.0
0.541176 0.047619 0.0
0.552941 0.047619 0.0
0.564706 0.047619 0.0
0.576471 0.047619 0.0
0.588235 0.047619 0.0
0.600000 0.047619 0.0
0.611765 0.047619 0.0
0.623529 0.047619 0.0
0.635294 0.047619 0.0
0.647059 0.047619 0.0
0.658824 0.047619 0.0
0.670588 0.047619 0.0
0.682353 0.047619 0.0
0.694118 0.047619 0.0
0.705882 0.047619 0.0
0.717647 0.047619 0.0
0.729412 0.047619 0.0
0.741176 0.047619 0.0
[...]
POINT_DATA 5694
VECTORS attr0 float
0.000000 0.000000 0.0
0.000000 0.000000 0.0
0.000000 0.000000 0.0
0.000000 0.000000 0.0
0.000000 0.000000 0.0
0.000000 0.000000 0.0
0.000000 0.000000 0.0
0.000000 0.000000 0.0
0.000000 0.000000 0.0
0.000000 0.000000 0.0
0.000000 0.000000 0.0
0.000000 0.000000 0.0
0.000000 0.000000 0.0
0.000000 0.000000 0.0
0.000000 0.000000 0.0
0.000000 0.000000 0.0
0.000000 0.000000 0.0
0.000000 0.000000 0.0
0.000000 0.000000 0.0
0.000000 0.000000 0.0
0.000000 0.000000 0.0
0.000000 0.000000 0.0
0.000000 0.000000 0.0
0.000000 0.000000 0.0
0.000000 0.000000 0.0
0.000000 0.000000 0.0
0.000000 0.000000 0.0
0.000000 0.000000 0.0
0.000000 0.000000 0.0
0.000000 0.000000 0.0
0.000000 0.000000 0.0
0.000000 0.000000 0.0
0.000000 0.000000 0.0
0.000000 0.000000 0.0
0.000000 0.000000 0.0
0.000000 0.000000 0.0
0.000000 0.000000 0.0
0.000000 0.000000 0.0
0.000000 0.000000 0.0
0.000000 0.000000 0.0
0.000000 0.000000 0.0
0.000000 0.000000 0.0
0.000000 0.000000 0.0
0.000000 0.000000 0.0
0.000000 0.000000 0.0
0.000000 0.000000 0.0
0.000000 0.000000 0.0
0.000000 0.000000 0.0
0.000000 0.000000 0.0
0.000000 0.000000 0.0
0.000000 0.000000 0.0
0.000000 0.000000 0.0
0.000000 0.000000 0.0
0.000000 0.000000 0.0
0.000000 0.000000 0.0
0.000000 0.000000 0.0
0.000000 0.000000 0.0
0.000000 0.000000 0.0
0.000000 0.000000 0.0
0.000000 0.000000 0.0
0.000000 0.000000 0.0
0.000000 0.000000 0.0
0.000000 0.000000 0.0
0.000000 0.000000 0.0
0.000000 0.000000 0.0
0.000000 0.000000 0.0
0.000000 0.000000 0.0
0.000000 0.000000 0.0
0.000000 0.000000 0.0
0.000000 0.000000 0.0
0.000000 0.000000 0.0
0.000000 0.000000 0.0
0.000000 0.000000 0.0
0.000000 0.000000 0.0
0.000000 0.000000 0.0
0.000000 0.000000 0.0
0.000000 0.000000 0.0
0.000000 0.000000 0.0
0.000000 0.000000 0.0
0.000000 0.000000 0.0
0.000000 0.000000 0.0
0.000000 0.000000 0.0
0.000000 0.000000 0.0
0.000000 0.000000 0.0
0.000000 0.000000 0.0
0.000000 0.000000 0.0
0.000000 0.000000 0.0
0.000000 0.000000 0.0
0.000000 0.000000 0.0
0.000000 0.000000 0.0
0.000000 0.000000 0.0
0.000000 0.000000 0.0
0.000000 0.000000 0.0
0.000000 0.000000 0.0
0.000000 0.000000 0.0
0.000000 0.000000 0.0
0.000000 0.000000 0.0
0.000000 0.000000 0.0
0.000000 0.000000 0.0
0.000000 0.000000 0.0
0.000000 0.000000 0.0
0.000000 0.000000 0.0
0.000000 0.000000 0.0
0.000000 0.000000 0.0
0.000000 0.000000 0.0
0.000000 0.000000 0.0
0.000000 0.000000 0.0
0.000000 0.000000 0.0
0.000000 0.000000 0.0
0.000000 0.000000 0.0
0.000000 0.000000 0.0
0.000000 0.000000 0.0
0.000000 0.000000 0.0
0.000000 0.000000 0.0
0.000000 0.000000 0.0
0.000000 0.000000 0.0
0.000000 0.000000 0.0
0.000000 0.000000 0.0
0.000000 0.000000 0.0
0.000000 0.000000 0.0
0.000000 0.000000 0.0
0.000000 0.000000 0.0
0.000000 0.000000 0.0
0.000000 0.000000 0.0
0.000000 0.000000 0.0
0.000000 0.000000 0.0
0.000000 0.000000 0.0
0.000000 0.000000 0.0
0.000000 0.000000 0.0
0.000000 0.000000 0.0
0.000000 -0.000000 0.0
0.000000 -0.000000 0.0
0.000000 -0.000000 0.0
0.000000 -0.000000 0.0
0.000000 -0.000000 0.0
0.000000 -0.000000 0.0
0.000000 -0.000000 0.0
0.000000 -0.000000 0.0
0.000000 -0.000000 0.0
0.000000 -0.000000 0.0
0.000000 -0.000000 0.0
0.000000 -0.000000 0.0
0.000000 -0.000000 0.0
0.000000 -0.000000 0.0
0.000000 -0.000000 0.0
0.000000 -0.000000 0.0
0.000000 -0.000000 0.0
0.000000 0.000000 0.0
0.000000 0.000000 0.0
0.000000 0.000000 0.0
0.000000 0.000000 0.0
0.000000 0.000000 0.0
0.000000 0.000000 0.0
0.000000 0.000000 0.0
0.000000 0.000000 0.0
-0.000000 0.000000 0.0
-0.000000 0.000000 0.0
-0.000000 0.000000 0.0
-0.000000 0.000000 0.0
-0.000000 0.000000 0.0
-0.000000 0.000000 0.0
-0.000000 0.000000 0.0
-0.000001 0.000000 0.0
-0.000001 0.000000 0.0
-0.000001 0.000000 0.0
-0.000001 0.000000 0.0
-0.000001 0.000000 0.0
-0.000001 0.000000 0.0
-0.000001 0.000000 0.0
-0.000002 0.000000 0.0
-0.000002 0.000000 0.0
-0.000002 0.000000 0.0
-0.000002 0.000000 0.0
-0.000003 0.000000 0.0
-0.000003 0.000000 0.0
-0.000003 0.000000 0.0
-0.000004 0.000000 0.0
-0.000004 0.000000 0.0
-0.000004 0.000000 0.0
-0.000005 0.000000 0.0
-0.000005 0.000000 0.0
-0.000006 0.000000 0.0
-0.000006 0.000000 0.0
-0.000007 0.000000 0.0
-0.000007 0.000000 0.0
-0.000008 0.000000 0.0
-0.000008 0.000000 0.0
-0.000009 0.000000 0.0
-0.000010 0.000001 0.0
-0.000011 0.000001 0.0
-0.000011 0.000001 0.0
-0.000012 0.000001 0.0
-0.000013 0.000001 0.0
-0.000014 0.000001 0.0
-0.000015 0.000001 0.0
-0.000016 0.000001 0.0
-0.000017 0.000001 0.0
-0.000018 0.000001 0.0
-0.000020 0.000001 0.0
-0.000021 0.000001 0.0
-0.000022 0.000001 0.0
-0.000024 0.000001 0.0
-0.000025 0.000001 0.0
-0.000027 0.000001 0.0
-0.000028 0.000001 0.0
-0.000030 0.000001 0.0
-0.000032 0.000001 0.0
-0.000034 0.000001 0.0
-0.000036 0.000001 0.0
-0.000038 0.000001 0.0
-0.000040 0.000002 0.0
-0.000042 0.000002 0.0
-0.000044 0.000002 0.0
-0.000047 0.000002 0.0
-0.000049 0.000002 0.0
-0.000052 0.000002 0.0
-0.000055 0.000002 0.0
-0.000058 0.000002 0.0
-0.000060 0.000002 0.0
-0.000063 0.000002 0.0
-0.000067 0.000002 0.0
-0.000070 0.000002 0.0
-0.000073 0.000002 0.0
-0.000077 0.000002 0.0
-0.000080 0.000003 0.0
-0.000084 0.000003 0.0
-0.000087 0.000003 0.0
-0.000091 0.000003 0.0
-0.000095 0.000003 0.0
-0.000099 0.000003 0.0
-0.000103 0.000003 0.0
-0.000107 0.000003 0.0
-0.000112 0.000003 0.0
-0.000116 0.000003 0.0
-0.000120 0.000003 0.0
-0.000125 0.000003 0.0
-0.000129 0.000003 0.0
-0.000134 0.000003 0.0
-0.000139 0.000003 0.0
-0.000143 0.000003 0.0
-0.000148 0.000003 0.0
-0.000153 0.000003 0.0
-0.000157 0.000003 0.0
-0.000162 0.000003 0.0
-0.000166 0.000003 0.0
-0.000171 0.000003 0.0
-0.000175 0.000003 0.0
-0.000179 0.000003 0.0
-0.000183 0.000003 0.0
-0.000187 0.000003 0.0
-0.000190 0.000003 0.0
-0.000194 0.000003 0.0
-0.000197 0.000002 0.0
-0.000200 0.000002 0.0
-0.000202 0.000002 0.0
-0.000204 0.000002 0.0
-0.000205 0.000001 0.0
0.000000 0.000000 0.0
0.000000 0.000000 0.0
0.000000 -0.000000 0.0
0.000000 -0.000000 0.0
0.000000 -0.000000 0.0
0.000000 -0.000000 0.0
0.000000 -0.000000 0.0
0.000000 -0.000000 0.0
0.000000 -0.000000 0.0
0.000000 -0.000000 0.0
0.000000 -0.000000 0.0
0.000000 -0.000000 0.0
0.000000 -0.000000 0.0
0.000000 -0.000000 0.0
0.000000 -0.000000 0.0
0.000000 -0.000000 0.0
0.000000 -0.000000 0.0
0.000000 -0.000000 0.0
0.000000 0.000000 0.0
0.000000 0.000000 0.0
0.000000 0.000000 0.0
0.000000 0.000000 0.0
0.000000 0.000000 0.0
0.000000 0.000000 0.0
0.000000 0.000000 0.0
-0.000000 0.000000 0.0
-0.000000 0.000000 0.0
-0.000000 0.000000 0.0
-0.000000 0.000000 0.0
-0.000000 0.000000 0.0
-0.000001 0.000000 0.0
-0.000001 0.000000 0.0
-0.000001 0.000000 0.0
-0.000001 0.000000 0.0
-0.000001 0.000000 0.0
-0.000002 0.000000 0.0
-0.000002 0.000000 0.0
-0.000002 0.000000 0.0
-0.000002 0.000000 0.0
-0.000003 0.000000 0.0
-0.000003 0.000001 0.0
-0.000004 0.000001 0.0
-0.000004 0.000001 0.0
-0.000004 0.000001 0.0
-0.000005 0.000001 0.0
-0.000005 0.000001 0.0
-0.000006 0.000001 0.0
-0.000007 0.000001 0.0
-0.000007 0.000001 0.0
-0.000008 0.000001 0.0
-0.000009 0.000001 0.0
-0.000010 0.000001 0.0
-0.000010 0.000001 0.0
-0.000011 0.000001 0.0
-0.000012 0.000001 0.0
-0.000013 0.000001 0.0
-0.000015 0.000002 0.0
-0.000016 0.000002 0.0
-0.000017 0.000002 0.0
-0.000018 0.000002 0.0
-0.000020 0.000002 0.0
-0.000021 0.000002 0.0
-0.000023 0.000002 0.0
-0.000024 0.000002 0.0
-0.000026 0.000002 0.0
-0.000028 0.000003 0.0
-0.000030 0.000003 0.0
-0.000032 0.000003 0.0
-0.000034 0.000003 0.0
-0.000036 0.000003 0.0
-0.000039 0.000003 0.0
-0.000041 0.000004 0.0
-0.000044 0.000004 0.0
-0.000047 0.000004 0.0
-0.000050 0.000004 0.0
-0.000053 0.000004 0.0
-0.000056 0.000005 0.0
-0.000059 0.000005 0.0
-0.000063 0.000005 0.0
-0.000066 0.000005 0.0
-0.000070 0.000005 0.0
-0.000074 0.000006 0.0
-0.000078 0.000006 0.0
-0.000082 0.000006 0.0
-0.000087 0.000006 0.0
-0.000091 0.000007 0.0
-0.000096 0.000007 0.0
-0.000101 0.000007 0.0
-0.000106 0.000007 0.0
-0.000112 0.000008 0.0
-0.000117 0.000008 0.0
-0.000123 0.000008 0.0
-0.000129 0.000009 0.0
-0.000135 0.000009 0.0
-0.000141 0.000009 0.0
-0.000148 0.000009 0.0
-0.000155 0.000010 0.0
-0.000161 0.000010 0.0
-0.000168 0.000010 0.0
-0.000176 0.000010 0.0
-0.000183 0.000011 0.0
-0.000191 0.000011 0.0
-0.000198 0.000011 0.0
-0.000206 0.000011 0.0
-0.000214 0.000012 0.0
-0.000222 0.000012 0.0
-0.000231 0.000012 0.0
-0.000239 0.000012 0.0
-0.000247 0.000012 0.0
-0.000256 0.000012 0.0
-0.000264 0.000012 0.0
-0.000273 0.000012 0.0
-0.000281 0.000012 0.0
-0.000290 0.000012 0.0
-0.000298 0.000012 0.0
-0.000306 0.000012 0.0
-0.000314 0.000012 0.0
-0.000322 0.000012 0.0
-0.000330 0.000011 0.0
-0.000337 0.000011 0.0
-0.000344 0.000011 0.0
-0.000350 0.000010 0.0
-0.000357 0.000009 0.0
-0.000362 0.000009 0.0
-0.000367 0.000008 0.0
-0.000371 0.000007 0.0
-0.000374 0.000006 0.0
-0.000377 0.000004 0.0
-0.000378 0.000003 0.0
0.000000 0.000000 0.0
0.000000 0.000000 0.0
0.000000 -0.000000 0.0
0.000000 -0.000000 0.0
0.000000 -0.000000 0.0
0.000000 -0.000000 0.0
0.000000 -0.000000 0.0
0.000000 -0.000000 0.0
0.000000 -0.000000 0.0
0.000000 -0.000000 0.0
0.000000 -0.000000 0.0
0.000000 -0.000000 0.0
0.000000 -0.000000 0.0
0.000000 -0.000000 0.0
0.000000 -0.000000 0.0
0.000000 -0.000000 0.0
0.000000 -0.000000 0.0
0.000000 0.000000 0.0
0.000000 0.000000 0.0
0.000000 0.000000 0.0
0.000000 0.000000 0.0
0.000000 0.000000 0.0
0.000000 0.000000 0.0
0.000000 0.000000 0.0
-0.000000 0.000000 0.0
-0.000000 0.000000 0.0
-0.000000 0.000000 0.0
-0.000000 0.000000 0.0
-0.000001 0.000000 0.0
-0.000001 0.000000 0.0
-0.000001 0.000000 0.0
-0.000001 0.000001 0.0
-0.000002 0.000001 0.0
-0.000002 0.000001 0.0
-0.000002 0.000001 0.0
-0.000003 0.000001 0.0
-0.000003 0.000001 0.0
-0.000003 0.000001 0.0
-0.000004 0.000001 0.0
-0.000004 0.000001 0.0
-0.000005 0.000001 0.0
-0.000006 0.000001 0.0
-0.000006 0.000001 0.0
-0.000007 0.000001 0.0
-0.000008 0.000002 0.0
-0.000008 0.000002 0.0
-0.000009 0.000002 0.0
-0.000010 0.000002 0.0
-0.000011 0.000002 0.0
-0.000012 0.000002 0.0
-0.000013 0.000002 0.0
-0.000015 0.000003 0.0
-0.000016 0.000003 0.0
-0.000017 0.000003 0.0
-0.000019 0.000003 0.0
-0.000020 0.000003 0.0
-0.000022 0.000003 0.0
-0.000024 0.000004 0.0
-0.000025 0.000004 0.0
-0.000027 0.000004 0.0
-0.000029 0.000004 0.0
-0.000031 0.000005 0.0
-0.000034 0.000005 0.0
-0.000036 0.000005 0.0
-0.000039 0.000005 0.0
-0.000041 0.000006 0.0
-0.000044 0.000006 0.0
-0.000047 0.000006 0.0
-0.000050 0.000007 0.0
-0.000054 0.000007 0.0
-0.000057 0.000007 0.0
-0.000061 0.000008 0.0
-0.000065 0.000008 0.0
-0.000069 0.000009 0.0
-0.000073 0.000009 0.0
-0.000077 0.000009 0.0
-0.000082 0.000010 0.0
-0.000087 0.000010 0.0
-0.000092 0.000011 0.0
-0.000097 0.000011 0.0
-0.000102 0.000012 0.0
-0.000108 0.000012 0.0
-0.000114 0.000013 0.0
-0.000120 0.000013 0.0
-0.000126 0.000014 0.0
-0.000133 0.000014 0.0
-0.000140 0.000015 0.0
-0.000147 0.000016 0.0
-0.000155 0.000016 0.0
-0.000162 0.000017 0.0
-0.000170 0.000017 0.0
-0.000178 0.000018 0.0
-0.000187 0.000018 0.0
-0.000196 0.000019 0.0
-0.000205 0.000020 0.0
-0.000214 0.000020 0.0
-0.000223 0.000021 0.0
-0.000233 0.000021 0.0
-0.000243 0.000022 0.0
-0.000253 0.000022 0.0
-0.000264 0.000023 0.0
-0.000274 0.000024 0.0
-0.000285 0.000024 0.0
-0.000296 0.000024 0.0
-0.000307 0.000025 0.0
-0.000319 0.000025 0.0
-0.000330 0.000026 0.0
-0.000342 0.000026 0.0
-0.000353 0.000026 0.0
-0.000365 0.000026 0.0
-0.000377 0.000026 0.0
-0.000388 0.000026 0.0
-0.000400 0.000026 0.0
-0.000411 0.000026 0.0
-0.000423 0.000026 0.0
-0.000434 0.000025 0.0
-0.000445 0.000025 0.0
-0.000455 0.000024 0.0
-0.000465 0.000023 0.0
-0.000475 0.000022 0.0
-0.000483 0.000021 0.0
-0.000492 0.000020 0.0
-0.000499 0.000018 0.0
-0.000506 0.000017 0.0
-0.000511 0.000015 0.0
-0.000516 0.000012 0.0
-0.000519 0.000010 0.0
-0.000521 0.000007 0.0
-0.000522 0.000004 0.0
0.000000 0.000000 0.0
0.000000 0.000000 0.0
0.000000 -0.000000 0.0
0.000000 -0.000000 0.0
0.000000 -0.000000 0.0
0.000000 -0.000000 0.0
0.000000 -0.000000 0.0
0.000000 -0.000000 0.0
0.000000 -0.000000 0.0
0.000000 -0.000000 0.0
0.000000 -0.000000 0.0
0.000000 -0.000000 0.0
0.000000 -0.000000 0.0
0.000000 -0.000000 0.0
0.000000 -0.000000 0.0
0.000000 -0.000000 0.0
0.000000 0.000000 0.0
0.000000 0.000000 0.0
0.000000 0.000000 0.0
0.000000 0.000000 0.0
0.000000 0.000000 0.0
0.000000 0.000000 0.0
-0.000000 0.000000 0.0
-0.000000 0.000000 0.0
-0.000000 0.000000 0.0
-0.000000 0.000000 0.0
-0.000001 0.000001 0.0
-0.000001 0.000001 0.0
-0.000001 0.000001 0.0
-0.000001 0.000001 0.0
-0.000002 0.000001 0.0
-0.000002 0.000001 0.0
-0.000002 0.000001 0.0
-0.000003 0.000001 0.0
-0.000003 0.000001 0.0
-0.000004 0.000001 0.0
-0.000004 0.000001 0.0
-0.000005 0.000002 0.0
-0.000005 0.000002 0.0
-0.000006 0.000002 0.0
-0.000007 0.000002 0.0
-0.000008 0.000002 0.0
-0.000008 0.000002 0.0
-0.000009 0.000003 0.0
-0.000010 0.000003 0.0
-0.000011 0.000003 0.0
-0.000013 0.000003 0.0
-0.000014 0.000003 0.0
-0.000015 0.000004 0.0
-0.000016 0.000004 0.0
-0.000018 0.000004 0.0
-0.000019 0.000004 0.0
-0.000021 0.000005 0.0
-0.000023 0.000005 0.0
-0.000025 0.000005 0.0
-0.000027 0.000006 0.0
-0.000029 0.000006 0.0
-0.000031 0.000006 0.0
-0.000034 0.000007 0.0
-0.000036 0.000007 0.0
-0.000039 0.000008 0.0
-0.000042 0.000008 0.0
-0.000045 0.000009 0.0
-0.000048 0.000009 0.0
-0.000051 0.000010 0.0
-0.000054 0.000010 0.0
-0.000058 0.000011 0.0
-0.000062 0.000011 0.0
-0.000066 0.000012 0.0
-0.000070 0.000012 0.0
-0.000075 0.000013 0.0
-0.000079 0.000014 0.0
-0.000084 0.000014 0.0
-0.000089 0.000015 0.0
-0.000095 0.000016 0.0
-0.000101 0.000016 0.0
-0.000106 0.000017 0.0
-0.000113 0.000018 0.0
-0.000119 0.000019 0.0
-0.000126 0.000020 0.0
-0.000133 0.000020 0.0
-0.000140 0.000021 0.0
-0.000147 0.000022 0.0
-0.000155 0.000023 0.0
-0.000163 0.000024 0.0
-0.000172 0.000025 0.0
-0.000181 0.000026 0.0
-0.000190 0.000027 0.0
-0.000199 0.000028 0.0
-0.000209 0.000029 0.0
-0.000219 0.000030 0.0
-0.000229 0.000031 0.0
-0.000240 0.000032 0.0
-0.000251 0.000033 0.0
-0.000262 0.000034 0.0
-0.000274 0.000035 0.0
-0.000286 0.000036 0.0
-0.000298 0.000037 0.0
-0.000311 0.000037 0.0
-0.000323 0.000038 0.0
-0.000337 0.000039 0.0
-0.000350 0.000040 0.0
-0.000363 0.000041 0.0
-0.000377 0.000041 0.0
-0.000391 0.000042 0.0
-0.000405 0.000043 0.0
-0.000419 0.000043 0.0
-0.000433 0.000043 0.0
-0.000448 0.000044 0.0
-0.000462 0.000044 0.0
-0.000476 0.000044 0.0
-0.000491 0.000044 0.0
-0.000505 0.000044 0.0
-0.000518 0.000043 0.0
-0.000532 0.000043 0.0
-0.000545 0.000042 0.0
-0.000558 0.000041 0.0
-0.000570 0.000039 0.0
-0.000582 0.000038 0.0
-0.000593 0.000036 0.0
-0.000603 0.000034 0.0
-0.000612 0.000031 0.0
-0.000620 0.000028 0.0
-0.000627 0.000025 0.0
-0.000632 0.000021 0.0
-0.000636 0.000017 0.0
-0.000638 0.000013 0.0
-0.000639 0.000008 0.0
-0.000637 0.000002 0.0
0.000000 0.000000 0.0
0.000000 0.000000 0.0
0.000000 -0.000000 0.0
0.000000 -0.000000 0.0
0.000000 -0.000000 0.0
0.000000 -0.000000 0.0
0.000000 -0.000000 0.0
0.000000 -0.000000 0.0
0.000000 -0.000000 0.0
0.000000 -0.000000 0.0
0.000000 -0.000000 0.0
0.000000 -0.000000 0.0
0.000000 -0.000000 0.0
0.000000 -0.000000 0.0
0.000000 -0.000000 0.0
0.000000 -0.000000 0.0
0.000000 0.000000 0.0
0.000000 0.000000 0.0
0.000000 0.000000 0.0
0.000000 0.000000 0.0
-0.000000 0.000000 0.0
-0.000000 0.000000 0.0
-0.000000 0.000000 0.0
-0.000000 0.000001 0.0
-0.000001 0.000001 0.0
-0.000001 0.000001 0.0
-0.000001 0.000001 0.0
-0.000001 0.000001 0.0
-0.000002 0.000001 0.0
-0.000002 0.000001 0.0
-0.000002 0.000001 0.0
-0.000003 0.000001 0.0
-0.000003 0.000002 0.0
-0.000004 0.000002 0.0
-0.000004 0.000002 0.0
-0.000005 0.000002 0.0
-0.000006 0.000002 0.0
-0.000006 0.000003 0.0
-0.000007 0.000003 0.0
-0.000008 0.000003 0.0
-0.000009 0.000003 0.0
-0.000010 0.000003 0.0
-0.000011 0.000004 0.0
-0.000012 0.000004 0.0
-0.000013 0.000004 0.0
-0.000014 0.000005 0.0
-0.000016 0.000005 0.0
-0.000017 0.000005 0.0
-0.000019 0.000006 0.0
-0.000021 0.000006 0.0
-0.000022 0.000006 0.0
-0.000024 0.000007 0.0
-0.000026 0.000007 0.0
-0.000028 0.000008 0.0
-0.000031 0.000008 0.0
-0.000033 0.000009 0.0
-0.000036 0.000009 0.0
-0.000039 0.000010 0.0
-0.000041 0.000011 0.0
-0.000044 0.000011 0.0
-0.000048 0.000012 0.0
-0.000051 0.000012 0.0
-0.000055 0.000013 0.0
-0.000059 0.000014 0.0
-0.000063 0.000015 0.0
-0.000067 0.000015 0.0
-0.000071 0.000016 0.0
-0.000076 0.000017 0.0
-0.000081 0.000018 0.0
-0.000086 0.000019 0.0
-0.000091 0.000020 0.0
-0.000097 0.000021 0.0
-0.000103 0.000022 0.0
-0.000109 0.000023 0.0
-0.000115 0.000024 0.0
-0.000122 0.000025 0.0
-0.000129 0.000026 0.0
-0.000137 0.000027 0.0
-0.000144 0.000029 0.0
-0.000152 0.000030 0.0
-0.000161 0.000031 0.0
-0.000169 0.000032 0.0
-0.000178 0.000034 0.0
-0.000188 0.000035 0.0
-0.000197 0.000036 0.0
-0.000208 0.000038 0.0
-0.000218 0.000039 0.0
-0.000229 0.000041 0.0
-0.000240 0.000042 0.0
-0.000251 0.000043 0.0
-0.000263 0.000045 0.0
-0.000276 0.000046 0.0
-0.000288 0.000048 0.0
-0.000301 0.000049 0.0
-0.000315 0.000051 0.0
-0.000328 0.000052 0.0
-0.000342 0.000053 0.0
-0.000357 0.000055 0.0
-0.000371 0.000056 0.0
-0.000386 0.000057 0.0
-0.000402 0.000059 0.0
-0.000417 0.000060 0.0
-0.000433 0.000061 0.0
-0.000449 0.000062 0.0
-0.000465 0.000063 0.0
-0.000481 0.000063 0.0
-0.000498 0.000064 0.0
-0.000514 0.000064 0.0
-0.000531 0.000065 0.0
-0.000547 0.000065 0.0
-0.000563 0.000065 0.0
-0.000579 0.000064 0.0
-0.000595 0.000064 0.0
-0.000611 0.000063 0.0
-0.000626 0.000062 0.0
-0.000641 0.000060 0.0
-0.000655 0.000059 0.0
-0.000668 0.000056 0.0
-0.000681 0.000054 0.0
-0.000692 0.000051 0.0
-0.000703 0.000047 0.0
-0.000712 0.000043 0.0
-0.000720 0.000038 0.0
-0.000726 0.000033 0.0
-0.000730 0.000027 0.0
-0.000733 0.000021 0.0
-0.000733 0.000013 0.0
-0.000731 0.000005 0.0
-0.000727 -0.000004 0.0
0.000000 0.000000 0.0
0.000000 0.000000 0.0
0.000000 -0.000000 0.0
0.000000 -0.000000 0.0
0.000000 -0.000000 0.0
0.000000 -0.000000 0.0
0.000000 -0.000000 0.0
0.000000 -0.000000 0.0
0.000000 -0.000000 0.0
0.000000 -0.000000 0.0
0.000000 -0.000000 0.0
0.000000 -0.000000 0.0
0.000000 -0.000000 0.0
0.000000 -0.000000 0.0
0.000000 -0.000000 0.0
0.000000 0.000000 0.0
0.000000 0.000000 0.0
0.000000 0.000000 0.0
-0.000000 0.000000 0.0
-0.000000 0.000000 0.0
-0.000000 0.000000 0.0
-0.000000 0.000001 0.0
-0.000001 0.000001 0.0
-0.000001 0.000001 0.0
-0.000001 0.000001 0.0
-0.000001 0.000001 0.0
-0.000002 0.000001 0.0
-0.000002 0.000001 0.0
-0.000002 0.000002 0.0
-0.000003 0.000002 0.0
-0.000003 0.000002 0.0
-0.000004 0.000002 0.0
-0.000004 0.000002 0.0
-0.000005 0.000003 0.0
-0.000005 0.000003 0.0
-0.000006 0.000003 0.0
-0.000007 0.000003 0.0
-0.000008 0.000004 0.0
-0.000009 0.000004 0.0
-0.000010 0.000004 0.0
-0.000011 0.000005 0.0
-0.000012 0.000005 0.0
-0.000013 0.000005 0.0
-0.000015 0.000006 0.0
-0.000016 0.000006 0.0
-0.000017 0.000007 0.0
-0.000019 0.000007 0.0
-0.000021 0.000008 0.0
-0.000023 0.000008 0.0
-0.000025 0.000009 0.0
-0.000027 0.000009 0.0
-0.000029 0.000010 0.0
-0.000031 0.000010 0.0
-0.000034 0.000011 0.0
-0.000037 0.000012 0.0
-0.000039 0.000013 0.0
-0.000042 0.000013 0.0
-0.000046 0.000014 0.0
-0.000049 0.000015 0.0
-0.000052 0.000016 0.0
-0.000056 0.000017 0.0
-0.000060 0.000018 0.0
-0.000064 0.000019 0.0
-0.000069 0.000020 0.0
-0.000073 0.000021 0.0
-0.000078 0.000022 0.0
-0.000083 0.000023 0.0
-0.000089 0.000024 0.0
-0.000094 0.000025 0.0
-0.000100 0.000027 0.0
-0.000107 0.000028 0.0
-0.000113 0.000029 0.0
-0.000120 0.000031 0.0
-0.000127 0.000032 0.0
-0.000134 0.000034 0.0
-0.000142 0.000035 0.0
-0.000150 0.000037 0.0
-0.000159 0.000038 0.0
-0.000168 0.000040 0.0
-0.000177 0.000042 0.0
-0.000186 0.000043 0.0
-0.000196 0.000045 0.0
-0.000206 0.000047 0.0
-0.000217 0.000049 0.0
-0.000228 0.000051 0.0
-0.000240 0.000053 0.0
-0.000252 0.000055 0.0
-0.000264 0.000056 0.0
-0.000277 0.000058 0.0
-0.000290 0.000060 0.0
-0.000303 0.000062 0.0
-0.000317 0.000064 0.0
-0.000332 0.000066 0.0
-0.000346 0.000068 0.0
-0.000361 0.000070 0.0
-0.000377 0.000072 0.0
-0.000393 0.000074 0.0
-0.000409 0.000076 0.0
-0.000425 0.000077 0.0
-0.000442 0.000079 0.0
-0.000459 0.000081 0.0
-0.000477 0.000082 0.0