# vtk DataFile Version 3.0
grids
ASCII
DATASET POLYDATA
POINTS 8514 float
0.000000 0.428571 0.0
0.011765 0.428571 0.0
0.023529 0.428571 0.0
0.035294 0.428571 0.0
0.047059 0.428571 0.0
0.058824 0.428571 0.0
0.070588 0.428571 0.0
0.082353 0.428571 0.0
0.094118 0.428571 0.0
0.105882 0.428571 0.0
0.117647 0.428571 0.0
0.129412 0.428571 0.0
0.141176 0.428571 0.0
0.152941 0.428571 0.0
0.164706 0.428571 0.0
0.176471 0.428571 0.0
0.188235 0.428571 0.0
0.200000 0.428571 0.0
0.211765 0.428571 0.0
0.223529 0.428571 0.0
0.235294 0.428571 0.0
0.247059 0.428571 0.0
0.258824 0.428571 0.0
0.270588 0.428571 0.0
0.282353 0.428571 0.0
0.294118 0.428571 0.0
0.305882 0.428571 0.0
0.317647 0.428571 0.0
0.329412 0.428571 0.0
0.341176 0.428571 0.0
0.352941 0.428571 0.0
0.364706 0.428571 0.0
0.376471 0.428571 0.0
0.388235 0.428571 0.0
0.400000 0.428571 0.0
0.411765 0.428571 0.0
0.423529 0.428571 0.0
0.435294 0.428571 0.0
0.447059 0.428571 0.0
0.458824 0.428571 0.0
0.470588 0.428571 0.0
0.482353 0.428571 0.0
0.494118 0.428571 0.0
0.505882 0.428571 0.0
0.517647 0.428571 0.0
0.529412 0.428571 0.0
0.541176 0.428571 0.0
0.552941 0.428571 0.0
0.564706 0.428571 0.0
0.576471 0.428571 0.0
0.588235 0.428571 0.0
0.600000 0.428571 0.0
0.611765 0.428571 0.0
0.623529 0.428571 0.0
0.635294 0.428571 0.0
0.647059 0.428571 0.0
0.658824 0.428571 0.0
0.670588 0.428571 0.0
0.682353 0.428571 0.0
0.694118 0.428571 0.0
0.705882 0.428571 0.0
0.717647 0.428571 0.0
0.729412 0.428571 0.0
0.741176 0.428571 0.0
0.752941 0.428571 0.0
0.764706 0.428571 0.0
0.776471 0.428571 0.0
0.788235 0.428571 0.0
0.800000 0.428571 0.0
0.811765 0.428571 0.0
0.823529 0.428571 0.0
0.835294 0.428571 0.0
0.847059 0.428571 0.0
0.858824 0.428571 0.0
0.870588 0.428571 0.0
0.882353 0.428571 0.0
0.894118 0.428571 0.0
0.905882 0.428571 0.0
0.917647 0.428571 0.0
0.929412 0.428571 0.0
0.941176 0.428571 0.0
0.952941 0.428571 0.0
0.964706 0.428571 0.0
0.976471 0.428571 0.0
0.988235 0.428571 0.0
1.000000 0.428571 0.0
1.011765 0.428571 0.0
1.023529 0.428571 0.0
1.035294 0.428571 0.0
1.047059 0.428571 0.0
1.058824 0.428571 0.0
1.070588 0.428571 0.0
1.082353 0.428571 0.0
1.094118 0.428571 0.0
1.105882 0.428571 0.0
1.117647 0.428571 0.0
1.129412 0.428571 0.0
1.141176 0.428571 0.0
1.152941 0.428571 0.0
1.164706 0.428571 0.0
1.176471 0.428571 0.0
1.188235 0.428571 0.0
1.200000 0.428571 0.0
1.211765 0.428571 0.0
1.223529 0.428571 0.0
1.235294 0.428571 0.0
1.247059 0.428571 0.0
1.258824 0.428571 0.0
1.270588 0.428571 0.0
1.282353 0.428571 0.0
1.294118 0.428571 0.0
1.305882 0.428571 0.0
1.317647 0.428571 0.0
1.329412 0.428571 0.0
1.341177 0.428571 0.0
1.352941 0.428571 0.0
1.364706 0.428571 0.0
1.376471 0.428571 0.0
1.388235 0.428571 0.0
1.400000 0.428571 0.0
1.411765 0.428571 0.0
1.423529 0.428571 0.0
1.435294 0.428571 0.0
1.447059 0.428571 0.0
1.458824 0.428571 0.0
1.470588 0.428571 0.0
1.482353 0.428571 0.0
1.494118 0.428571 0.0
1.505882 0.428571 0.0
0.000000 0.444444 0.0
0.011765 0.444444 0.0
0.023529 0.444444 0.0
0.035294 0.444444 0.0
0.047059 0.444444 0.0
0.058824 0.444444 0.0
0.070588 0.444444 0.0
0.082353 0.444444 0.0
0.094118 0.444444 0.0
0.105882 0.444444 0.0
0.117647 0.444444 0.0
0.129412 0.444444 0.0
0.141176 0.444444 0.0
0.152941 0.444444 0.0
0.164706 0.444444 0.0
0.176471 0.444444 0.0
0.188235 0.444444 0.0
0.200000 0.444444 0.0
0.211765 0.444444 0.0
0.223529 0.444444 0.0
0.235294 0.444444 0.0
0.247059 0.444444 0.0
0.258824 0.444444 0.0
0.270588 0.444444 0.0
0.282353 0.444444 0.0
0.294118 0.444444 0.0
0.305882 0.444444 0.0
0.317647 0.444444 0.0
0.329412 0.444444 0.0
0.341176 0.444444 0.0
0.352941 0.444444 0.0
0.364706 0.444444 0.0
0.376471 0.444444 0.0
0.388235 0.444444 0.0
0.400000 0.444444 0.0
0.411765 0.444444 0.0
0.423529 0.444444 0.0
0.435294 0.444444 0.0
0.447059 0.444444 0.0
0.458824 0.444444 0.0
0.470588 0.444444 0.0
0.482353 0.444444 0.0
0.494118 0.444444 0.0
0.505882 0.444444 0.0
0.517647 0.444444 0.0
0.529412 0.444444 0.0
0.541176 0.444444 0.0
0.552941 0.444444 0.0
0.564706 0.444444 0.0
0.576471 0.444444 0.0
0.588235 0.444444 0.0
0.600000 0.444444 0.0
0.611765 0.444444 0.0
0.623529 0.444444 0.0
0.635294 0.444444 0.0
0.647059 0.444444 0.0
0.658824 0.444444 0.0
0.670588 0.444444 0.0
0.682353 0.444444 0.0
0.694118 0.444444 0.0
0.705882 0.444444 0.0
0.717647 0.444444 0.0
0.729412 0.444444 0.0
0.741176 0.444444 0.0
0.752941 0.444444 0.0
0.764706 0.444444 0.0
0.776471 0.444444 0.0
0.788235 0.444444 0.0
0.800000 0.444444 0.0
0.811765 0.444444 0.0
0.823529 0.444444 0.0
0.835294 0.444444 0.0
0.847059 0.444444 0.0
0.858824 0.444444 0.0
0.870588 0.444444 0.0
0.882353 0.444444 0.0
0.894118 0.444444 0.0
0.905882 0.444444 0.0
0.917647 0.444444 0.0
0.929412 0.444444 0.0
0.941176 0.444444 0.0
0.952941 0.444444 0.0
0.964706 0.444444 0.0
0.976471 0.444444 0.0
0.988235 0.444444 0.0
1.000000 0.444444 0.0
1.011765 0.444444 0.0
1.023529 0.444444 0.0
1.035294 0.444444 0.0
1.047059 0.444444 0.0
1.058824 0.444444 0.0
1.070588 0.444444 0.0
1.082353 0.444444 0.0
1.094118 0.444444 0.0
1.105882 0.444444 0.0
1.117647 0.444444 0.0
1.129412 0.444444 0.0
1.141176 0.444444 0.0
1.152941 0.444444 0.0
1.164706 0.444444 0.0
1.176471 0.444444 0.0
1.188235 0.444444 0.0
1.200000 0.444444 0.0
1.211765 0.444444 0.0
1.223529 0.444444 0.0
1.235294 0.444444 0.0
1.247059 0.444444 0.0
1.258824 0.444444 0.0
1.270588 0.444444 0.0
1.282353 0.444444 0.0
1.294118 0.444444 0.0
1.305882 0.444444 0.0
1.317647 0.444444 0.0
1.329412 0.444444 0.0
1.341177 0.444444 0.0
1.352941 0.444444 0.0
1.364706 0.444444 0.0
1.376471 0.444444 0.0
1.388235 0.444444 0.0
1.400000 0.444444 0.0
1.411765 0.444444 0.0
1.423529 0.444444 0.0
1.435294 0.444444 0.0
1.447059 0.444444 0.0
1.458824 0.444444 0.0
1.470588 0.444444 0.0
1.482353 0.444444 0.0
1.494118 0.444444 0.0
1.505882 0.444444 0.0
0.000000 0.460317 0.0
0.011765 0.460317 0.0
0.023529 0.460317 0.0
0.035294 0.460317 0.0
0.047059 0.460317 0.0
0.058824 0.460317 0.0
0.070588 0.460317 0.0
0.082353 0.460317 0.0
0.094118 0.460317 0.0
0.105882 0.460317 0.0
0.117647 0.460317 0.0
0.129412 0.460317 0.0
0.141176 0.460317 0.0
0.152941 0.460317 0.0
0.164706 0.460317 0.0
0.176471 0.460317 0.0
0.188235 0.460317 0.0
0.200000 0.460317 0.0
0.211765 0.460317 0.0
0.223529 0.460317 0.0
0.235294 0.460317 0.0
0.247059 0.460317 0.0
0.258824 0.460317 0.0
0.270588 0.460317 0.0
0.282353 0.460317 0.0
0.294118 0.460317 0.0
0.305882 0.460317 0.0
0.317647 0.460317 0.0
0.329412 0.460317 0.0
0.341176 0.460317 0.0
0.352941 0.460317 0.0
0.364706 0.460317 0.0
0.376471 0.460317 0.0
0.388235 0.460317 0.0
0.400000 0.460317 0.0
0.411765 0.460317 0.0
0.423529 0.460317 0.0
0.435294 0.460317 0.0
0.447059 0.460317 0.0
0.458824 0.460317 0.0
0.470588 0.460317 0.0
0.482353 0.460317 0.0
0.494118 0.460317 0.0
0.505882 0.460317 0.0
0.517647 0.460317 0.0
0.529412 0.460317 0.0
0.541176 0.460317 0.0
0.552941 0.460317 0.0
0.564706 0.460317 0.0
0.576471 0.460317 0.0
0.588235 0.460317 0.0
0.600000 0.460317 0.0
0.611765 0.460317 0.0
0.623529 0.460317 0.0
0.635294 0.460317 0.0
0.647059 0.460317 0.0
0.658824 0.460317 0.0
0.670588 0.460317 0.0
0.682353 0.460317 0.0
0.694118 0.460317 0.0
0.705882 0.460317 0.0
0.717647 0.460317 0.0
0.729412 0.460317 0.0
0.741176 0.460317 0.0
0.752941 0.460317 0.0
0.764706 0.460317 0.0
0.776471 0.460317 0.0
0.788235 0.460317 0.0
0.800000 0.460317 0.0
0.811765 0.460317 0.0
0.823529 0.460317 0.0
0.835294 0.460317 0.0
0.847059 0.460317 0.0
0.858824 0.460317 0.0
0.870588 0.460317 0.0
0.882353 0.460317 0.0
0.894118 0.460317 0.0
0.905882 0.460317 0.0
0.917647 0.460317 0.0
0.929412 0.460317 0.0
0.941176 0.460317 0.0
0.952941 0.460317 0.0
0.964706 0.460317 0.0
0.976471 0.460317 0.0
0.988235 0.460317 0.0
1.000000 0.460317 0.0
1.011765 0.460317 0.0
1.023529 0.460317 0.0
1.035294 0.460317 0.0
1.047059 0.460317 0.0
1.058824 0.460317 0.0
1.070588 0.460317 0.0
1.082353 0.460317 0.0
1.094118 0.460317 0.0
1.105882 0.460317 0.0
1.117647 0.460317 0.0
1.129412 0.460317 0.0
1.141176 0.460317 0.0
1.152941 0.460317 0.0
1.164706 0.460317 0.0
1.176471 0.460317 0.0
1.188235 0.460317 0.0
1.200000 0.460317 0.0
1.211765 0.460317 0.0
1.223529 0.460317 0.0
1.235294 0.460317 0.0
1.247059 0.460317 0.0
1.258824 0.460317 0.0
1.270588 0.460317 0.0
1.282353 0.460317 0.0
1.294118 0.460317 0.0
1.305882 0.460317 0.0
1.317647 0.460317 0.0
1.329412 0.460317 0.0
1.341177 0.460317 0.0
1.352941 0.460317 0.0
1.364706 0.460317 0.0
1.376471 0.460317 0.0
1.388235 0.460317 0.0
1.400000 0.460317 0.0
1.411765 0.460317 0.0
1.423529 0.460317 0.0
1.435294 0.460317 0.0
1.447059 0.460317 0.0
1.458824 0.460317 0.0
1.470588 0.460317 0.0
1.482353 0.460317 0.0
1.494118 0.460317 0.0
1.505882 0.460317 0.0
0.000000 0.476191 0.0
0.011765 0.476191 0.0
0.023529 0.476191 0.0
0.035294 0.476191 0.0
0.047059 0.476191 0.0
0.058824 0.476191 0.0
0.070588 0.476191 0.0
0.082353 0.476191 0.0
0.094118 0.476191 0.0
0.105882 0.476191 0.0
0.117647 0.476191 0.0
0.129412 0.476191 0.0
0.141176 0.476191 0.0
0.152941 0.476191 0.0
0.164706 0.476191 0.0
0.176471 0.476191 0.0
0.188235 0.476191 0.0
0.200000 0.476191 0.0
0.211765 0.476191 0.0
0.223529 0.476191 0.0
0.235294 0.476191 0.0
0.247059 0.476191 0.0
0.258824 0.476191 0.0
0.270588 0.476191 0.0
0.282353 0.476191 0.0
0.294118 0.476191 0.0
0.305882 0.476191 0.0
0.317647 0.476191 0.0
0.329412 0.476191 0.0
0.341176 0.476191 0.0
0.352941 0.476191 0.0
0.364706 0.476191 0.0
0.376471 0.476191 0.0
0.388235 0.476191 0.0
0.400000 0.476191 0.0
0.411765 0.476191 0.0
0.423529 0.476191 0.0
0.435294 0.476191 0.0
0.447059 0.476191 0.0
0.458824 0.476191 0.0
0.470588 0.476191 0.0
0.482353 0.476191 0.0
0.494118 0.476191 0.0
0.505882 0.476191 0.0
0.517647 0.476191 0.0
0.529412 0.476191 0.0
0.541176 0.476191 0.0
0.552941 0.476191 0.0
0.564706 0.476191 0.0
0.576471 0.476191 0.0
0.588235 0.476191 0.0
0.600000 0.476191 0.0
0.611765 0.476191 0.0
0.623529 0.476191 0.0
0.635294 0.476191 0.0
0.647059 0.476191 0.0
0.658824 0.476191 0.0
0.670588 0.476191 0.0
0.682353 0.476191 0.0
0.694118 0.476191 0.0
0.705882 0.476191 0.0
0.717647 0.476191 0.0
0.729412 0.476191 0.0
0.741176 0.476191 0.0
[...]
POINT_DATA 8514
VECTORS attr0 float
0.000000 0.000000 0.0
0.000000 0.000000 0.0
0.000000 0.000000 0.0
0.000000 0.000000 0.0
0.000000 0.000000 0.0
0.000000 0.000000 0.0
0.000000 0.000000 0.0
0.000000 0.000000 0.0
0.000000 0.000000 0.0
0.000000 0.000000 0.0
0.000000 0.000000 0.0
0.000000 0.000000 0.0
0.000000 0.000000 0.0
0.000000 0.000000 0.0
0.000000 0.000000 0.0
0.000000 0.000000 0.0
0.000000 0.000000 0.0
0.000000 0.000000 0.0
0.000000 0.000000 0.0
0.000000 0.000000 0.0
0.000000 0.000000 0.0
0.000000 0.000000 0.0
0.000000 0.000000 0.0
0.000000 0.000000 0.0
0.000000 0.000000 0.0
0.000000 0.000000 0.0
0.000000 0.000000 0.0
0.000000 0.000000 0.0
0.000000 0.000000 0.0
0.000000 0.000000 0.0
0.000000 0.000000 0.0
0.000000 0.000000 0.0
0.000000 0.000000 0.0
0.000000 0.000000 0.0
0.000000 0.000000 0.0
0.000000 0.000000 0.0
0.000000 0.000000 0.0
0.000000 0.000000 0.0
0.000000 0.000000 0.0
0.000000 0.000000 0.0
0.000000 0.000000 0.0
0.000000 0.000000 0.0
0.000000 0.000000 0.0
0.000000 0.000000 0.0
0.000000 0.000000 0.0
0.000000 0.000000 0.0
0.000000 0.000000 0.0
0.000000 0.000000 0.0
0.000000 0.000000 0.0
0.000000 0.000000 0.0
0.000000 0.000000 0.0
0.000000 0.000000 0.0
0.000000 0.000000 0.0
0.000000 0.000000 0.0
0.000000 0.000000 0.0
0.000000 0.000000 0.0
0.000000 0.000000 0.0
0.000000 0.000000 0.0
0.000000 0.000000 0.0
0.000000 0.000000 0.0
0.000000 0.000000 0.0
0.000000 0.000000 0.0
0.000000 0.000000 0.0
0.000000 0.000000 0.0
0.000000 0.000000 0.0
0.000000 0.000000 0.0
0.000000 0.000000 0.0
0.000000 0.000000 0.0
0.000000 0.000000 0.0
0.000000 0.000000 0.0
0.000000 0.000000 0.0
0.000000 0.000000 0.0
0.000000 0.000000 0.0
0.000000 0.000000 0.0
0.000000 0.000000 0.0
0.000000 0.000000 0.0
0.000000 0.000000 0.0
0.000000 0.000000 0.0
0.000000 0.000000 0.0
0.000000 0.000000 0.0
0.000000 0.000000 0.0
0.000000 0.000000 0.0
0.000000 0.000000 0.0
0.000000 0.000000 0.0
0.000000 0.000000 0.0
0.000000 0.000000 0.0
0.000000 0.000000 0.0
0.000000 0.000000 0.0
0.000000 0.000000 0.0
0.000000 0.000000 0.0
0.000000 0.000000 0.0
0.000000 0.000000 0.0
0.000000 0.000000 0.0
0.000000 0.000000 0.0
0.000000 0.000000 0.0
0.000000 0.000000 0.0
0.000000 0.000000 0.0
0.000000 0.000000 0.0
0.000000 0.000000 0.0
0.000000 0.000000 0.0
0.000000 0.000000 0.0
0.000000 0.000000 0.0
0.000000 0.000000 0.0
0.000000 0.000000 0.0
0.000000 0.000000 0.0
0.000000 0.000000 0.0
0.000000 0.000000 0.0
0.000000 0.000000 0.0
0.000000 0.000000 0.0
0.000000 0.000000 0.0
0.000000 0.000000 0.0
0.000000 0.000000 0.0
0.000000 0.000000 0.0
0.000000 0.000000 0.0
0.000000 0.000000 0.0
0.000000 0.000000 0.0
0.000000 0.000000 0.0
0.000000 0.000000 0.0
0.000000 0.000000 0.0
0.000000 0.000000 0.0
0.000000 0.000000 0.0
0.000000 0.000000 0.0
0.000000 0.000000 0.0
0.000000 0.000000 0.0
0.000000 0.000000 0.0
0.000000 0.000000 0.0
0.000000 0.000000 0.0
0.000000 0.000000 0.0
0.000000 0.000000 0.0
0.000000 0.000000 0.0
-0.000000 0.000000 0.0
-0.000000 0.000000 0.0
-0.000000 0.000000 0.0
-0.000000 0.000001 0.0
-0.000000 0.000001 0.0
-0.000000 0.000001 0.0
-0.000000 0.000001 0.0
-0.000000 0.000002 0.0
-0.000000 0.000002 0.0
-0.000000 0.000003 0.0
-0.000000 0.000003 0.0
-0.000000 0.000004 0.0
-0.000001 0.000004 0.0
-0.000001 0.000005 0.0
-0.000001 0.000006 0.0
-0.000001 0.000007 0.0
-0.000001 0.000008 0.0
-0.000001 0.000009 0.0
-0.000001 0.000010 0.0
-0.000001 0.000011 0.0
-0.000002 0.000012 0.0
-0.000002 0.000013 0.0
-0.000002 0.000014 0.0
-0.000002 0.000016 0.0
-0.000002 0.000017 0.0
-0.000003 0.000019 0.0
-0.000003 0.000021 0.0
-0.000003 0.000023 0.0
-0.000004 0.000025 0.0
-0.000004 0.000027 0.0
-0.000004 0.000029 0.0
-0.000005 0.000031 0.0
-0.000005 0.000034 0.0
-0.000006 0.000036 0.0
-0.000006 0.000039 0.0
-0.000007 0.000042 0.0
-0.000007 0.000045 0.0
-0.000008 0.000048 0.0
-0.000008 0.000051 0.0
-0.000009 0.000055 0.0
-0.000010 0.000058 0.0
-0.000011 0.000062 0.0
-0.000011 0.000066 0.0
-0.000012 0.000070 0.0
-0.000013 0.000075 0.0
-0.000014 0.000080 0.0
-0.000015 0.000084 0.0
-0.000016 0.000090 0.0
-0.000017 0.000095 0.0
-0.000019 0.000100 0.0
-0.000020 0.000106 0.0
-0.000021 0.000112 0.0
-0.000022 0.000118 0.0
-0.000024 0.000125 0.0
-0.000025 0.000132 0.0
-0.000027 0.000139 0.0
-0.000029 0.000146 0.0
-0.000031 0.000154 0.0
-0.000032 0.000162 0.0
-0.000034 0.000170 0.0
-0.000036 0.000178 0.0
-0.000039 0.000187 0.0
-0.000041 0.000196 0.0
-0.000043 0.000205 0.0
-0.000046 0.000215 0.0
-0.000048 0.000225 0.0
-0.000051 0.000235 0.0
-0.000053 0.000245 0.0
-0.000056 0.000256 0.0
-0.000059 0.000267 0.0
-0.000062 0.000278 0.0
-0.000065 0.000289 0.0
-0.000069 0.000301 0.0
-0.000072 0.000313 0.0
-0.000076 0.000325 0.0
-0.000079 0.000337 0.0
-0.000083 0.000349 0.0
-0.000087 0.000362 0.0
-0.000091 0.000375 0.0
-0.000095 0.000387 0.0
-0.000099 0.000400 0.0
-0.000104 0.000413 0.0
-0.000108 0.000425 0.0
-0.000113 0.000438 0.0
-0.000117 0.000450 0.0
-0.000122 0.000462 0.0
-0.000127 0.000474 0.0
-0.000132 0.000486 0.0
-0.000137 0.000497 0.0
-0.000142 0.000508 0.0
-0.000147 0.000518 0.0
-0.000152 0.000528 0.0
-0.000157 0.000536 0.0
-0.000163 0.000544 0.0
-0.000168 0.000551 0.0
-0.000173 0.000557 0.0
-0.000178 0.000562 0.0
-0.000183 0.000565 0.0
-0.000188 0.000566 0.0
-0.000193 0.000566 0.0
-0.000198 0.000564 0.0
-0.000203 0.000560 0.0
-0.000207 0.000554 0.0
-0.000212 0.000545 0.0
-0.000216 0.000533 0.0
-0.000219 0.000519 0.0
-0.000223 0.000501 0.0
-0.000226 0.000480 0.0
-0.000228 0.000455 0.0
-0.000230 0.000426 0.0
-0.000232 0.000392 0.0
-0.000233 0.000354 0.0
-0.000233 0.000310 0.0
-0.000233 0.000261 0.0
-0.000231 0.000205 0.0
-0.000229 0.000144 0.0
-0.000226 0.000075 0.0
-0.000221 -0.000001 0.0
-0.000216 -0.000084 0.0
-0.000209 -0.000177 0.0
-0.000201 -0.000278 0.0
-0.000191 -0.000389 0.0
-0.000180 -0.000510 0.0
-0.000167 -0.000642 0.0
-0.000152 -0.000786 0.0
-0.000135 -0.000942 0.0
-0.000115 -0.001111 0.0
0.000000 0.000000 0.0
0.000000 0.000000 0.0
-0.000000 0.000000 0.0
-0.000000 0.000000 0.0
-0.000000 0.000000 0.0
-0.000000 0.000001 0.0
-0.000000 0.000001 0.0
-0.000000 0.000001 0.0
-0.000000 0.000002 0.0
-0.000000 0.000002 0.0
-0.000000 0.000002 0.0
-0.000000 0.000003 0.0
-0.000000 0.000003 0.0
-0.000000 0.000004 0.0
-0.000000 0.000005 0.0
-0.000000 0.000005 0.0
-0.000001 0.000006 0.0
-0.000001 0.000007 0.0
-0.000001 0.000008 0.0
-0.000001 0.000009 0.0
-0.000001 0.000010 0.0
-0.000001 0.000011 0.0
-0.000001 0.000012 0.0
-0.000001 0.000013 0.0
-0.000001 0.000015 0.0
-0.000002 0.000016 0.0
-0.000002 0.000018 0.0
-0.000002 0.000019 0.0
-0.000002 0.000021 0.0
-0.000002 0.000023 0.0
-0.000003 0.000025 0.0
-0.000003 0.000027 0.0
-0.000003 0.000029 0.0
-0.000003 0.000032 0.0
-0.000004 0.000034 0.0
-0.000004 0.000037 0.0
-0.000004 0.000039 0.0
-0.000005 0.000042 0.0
-0.000005 0.000045 0.0
-0.000006 0.000049 0.0
-0.000006 0.000052 0.0
-0.000007 0.000055 0.0
-0.000007 0.000059 0.0
-0.000008 0.000063 0.0
-0.000008 0.000067 0.0
-0.000009 0.000072 0.0
-0.000009 0.000076 0.0
-0.000010 0.000081 0.0
-0.000011 0.000086 0.0
-0.000012 0.000091 0.0
-0.000013 0.000096 0.0
-0.000013 0.000102 0.0
-0.000014 0.000108 0.0
-0.000015 0.000114 0.0
-0.000016 0.000120 0.0
-0.000017 0.000127 0.0
-0.000018 0.000134 0.0
-0.000020 0.000141 0.0
-0.000021 0.000148 0.0
-0.000022 0.000156 0.0
-0.000023 0.000164 0.0
-0.000025 0.000172 0.0
-0.000026 0.000181 0.0
-0.000028 0.000189 0.0
-0.000029 0.000199 0.0
-0.000031 0.000208 0.0
-0.000033 0.000218 0.0
-0.000035 0.000228 0.0
-0.000037 0.000238 0.0
-0.000038 0.000248 0.0
-0.000041 0.000259 0.0
-0.000043 0.000270 0.0
-0.000045 0.000282 0.0
-0.000047 0.000293 0.0
-0.000050 0.000305 0.0
-0.000052 0.000317 0.0
-0.000055 0.000329 0.0
-0.000057 0.000341 0.0
-0.000060 0.000354 0.0
-0.000063 0.000367 0.0
-0.000065 0.000379 0.0
-0.000068 0.000392 0.0
-0.000071 0.000405 0.0
-0.000075 0.000418 0.0
-0.000078 0.000430 0.0
-0.000081 0.000443 0.0
-0.000084 0.000456 0.0
-0.000088 0.000468 0.0
-0.000091 0.000480 0.0
-0.000095 0.000492 0.0
-0.000098 0.000503 0.0
-0.000102 0.000514 0.0
-0.000106 0.000524 0.0
-0.000109 0.000534 0.0
-0.000113 0.000542 0.0
-0.000117 0.000550 0.0
-0.000121 0.000557 0.0
-0.000124 0.000563 0.0
-0.000128 0.000568 0.0
-0.000132 0.000571 0.0
-0.000135 0.000572 0.0
-0.000139 0.000572 0.0
-0.000142 0.000570 0.0
-0.000146 0.000566 0.0
-0.000149 0.000559 0.0
-0.000152 0.000550 0.0
-0.000155 0.000538 0.0
-0.000157 0.000523 0.0
-0.000160 0.000505 0.0
-0.000162 0.000483 0.0
-0.000164 0.000457 0.0
-0.000165 0.000428 0.0
-0.000166 0.000393 0.0
-0.000167 0.000354 0.0
-0.000167 0.000310 0.0
-0.000167 0.000260 0.0
-0.000166 0.000203 0.0
-0.000164 0.000141 0.0
-0.000162 0.000071 0.0
-0.000158 -0.000006 0.0
-0.000154 -0.000092 0.0
-0.000149 -0.000185 0.0
-0.000143 -0.000288 0.0
-0.000136 -0.000401 0.0
-0.000128 -0.000524 0.0
-0.000119 -0.000659 0.0
-0.000108 -0.000805 0.0
-0.000095 -0.000963 0.0
-0.000081 -0.001135 0.0
0.000000 0.000000 0.0
0.000000 0.000000 0.0
-0.000000 0.000000 0.0
-0.000000 0.000000 0.0
-0.000000 0.000000 0.0
-0.000000 0.000001 0.0
-0.000000 0.000001 0.0
-0.000000 0.000001 0.0
-0.000000 0.000002 0.0
-0.000000 0.000002 0.0
-0.000000 0.000002 0.0
-0.000000 0.000003 0.0
-0.000000 0.000003 0.0
-0.000000 0.000004 0.0
-0.000000 0.000005 0.0
-0.000000 0.000005 0.0
-0.000000 0.000006 0.0
-0.000000 0.000007 0.0
-0.000000 0.000008 0.0
-0.000000 0.000009 0.0
-0.000001 0.000010 0.0
-0.000001 0.000011 0.0
-0.000001 0.000012 0.0
-0.000001 0.000014 0.0
-0.000001 0.000015 0.0
-0.000001 0.000016 0.0
-0.000001 0.000018 0.0
-0.000001 0.000020 0.0
-0.000001 0.000021 0.0
-0.000001 0.000023 0.0
-0.000002 0.000025 0.0
-0.000002 0.000027 0.0
-0.000002 0.000030 0.0
-0.000002 0.000032 0.0
-0.000002 0.000034 0.0
-0.000002 0.000037 0.0
-0.000003 0.000040 0.0
-0.000003 0.000043 0.0
-0.000003 0.000046 0.0
-0.000003 0.000049 0.0
-0.000004 0.000052 0.0
-0.000004 0.000056 0.0
-0.000004 0.000060 0.0
-0.000005 0.000064 0.0
-0.000005 0.000068 0.0
-0.000005 0.000072 0.0
-0.000006 0.000077 0.0
-0.000006 0.000081 0.0
-0.000007 0.000086 0.0
-0.000007 0.000092 0.0
-0.000008 0.000097 0.0
-0.000008 0.000103 0.0
-0.000009 0.000109 0.0
-0.000009 0.000115 0.0
-0.000010 0.000121 0.0
-0.000010 0.000128 0.0
-0.000011 0.000135 0.0
-0.000012 0.000142 0.0
-0.000013 0.000150 0.0
-0.000013 0.000157 0.0
-0.000014 0.000165 0.0
-0.000015 0.000174 0.0
-0.000016 0.000182 0.0
-0.000017 0.000191 0.0
-0.000018 0.000200 0.0
-0.000019 0.000210 0.0
-0.000020 0.000220 0.0
-0.000021 0.000230 0.0
-0.000022 0.000240 0.0
-0.000023 0.000251 0.0
-0.000024 0.000261 0.0
-0.000026 0.000273 0.0
-0.000027 0.000284 0.0
-0.000028 0.000296 0.0
-0.000030 0.000307 0.0
-0.000031 0.000320 0.0
-0.000033 0.000332 0.0
-0.000034 0.000344 0.0
-0.000036 0.000357 0.0
-0.000038 0.000370 0.0
-0.000039 0.000382 0.0
-0.000041 0.000395 0.0
-0.000043 0.000408 0.0
-0.000045 0.000421 0.0
-0.000047 0.000434 0.0
-0.000049 0.000447 0.0
-0.000051 0.000459 0.0
-0.000053 0.000472 0.0
-0.000055 0.000484 0.0
-0.000057 0.000496 0.0
-0.000059 0.000507 0.0
-0.000062 0.000518 0.0
-0.000064 0.000528 0.0
-0.000066 0.000538 0.0
-0.000068 0.000547 0.0
-0.000070 0.000554 0.0
-0.000073 0.000561 0.0
-0.000075 0.000567 0.0
-0.000077 0.000572 0.0
-0.000079 0.000575 0.0
-0.000082 0.000576 0.0
-0.000084 0.000576 0.0
-0.000086 0.000573 0.0
-0.000088 0.000569 0.0
-0.000090 0.000562 0.0
-0.000091 0.000553 0.0
-0.000093 0.000541 0.0
-0.000095 0.000526 0.0
-0.000096 0.000507 0.0
-0.000097 0.000485 0.0
-0.000099 0.000459 0.0
-0.000099 0.000429 0.0
-0.000100 0.000394 0.0
-0.000100 0.000354 0.0
-0.000100 0.000309 0.0
-0.000100 0.000259 0.0
-0.000100 0.000202 0.0
-0.000099 0.000138 0.0
-0.000097 0.000068 0.0
-0.000095 -0.000010 0.0
-0.000093 -0.000097 0.0
-0.000090 -0.000191 0.0
-0.000086 -0.000296 0.0
-0.000082 -0.000410 0.0
-0.000077 -0.000534 0.0
-0.000071 -0.000670 0.0
-0.000064 -0.000817 0.0
-0.000057 -0.000978 0.0
-0.000048 -0.001151 0.0
0.000000 0.000000 0.0
0.000000 0.000000 0.0
-0.000000 0.000000 0.0
-0.000000 0.000000 0.0
-0.000000 0.000000 0.0
-0.000000 0.000001 0.0
-0.000000 0.000001 0.0
-0.000000 0.000001 0.0
-0.000000 0.000002 0.0
-0.000000 0.000002 0.0
-0.000000 0.000002 0.0
-0.000000 0.000003 0.0
-0.000000 0.000003 0.0
-0.000000 0.000004 0.0
-0.000000 0.000005 0.0
-0.000000 0.000005 0.0
-0.000000 0.000006 0.0
-0.000000 0.000007 0.0
-0.000000 0.000008 0.0
-0.000000 0.000009 0.0
-0.000000 0.000010 0.0
-0.000000 0.000011 0.0
-0.000000 0.000012 0.0
-0.000000 0.000014 0.0
-0.000000 0.000015 0.0
-0.000000 0.000016 0.0
-0.000000 0.000018 0.0
-0.000000 0.000020 0.0
-0.000000 0.000021 0.0
-0.000000 0.000023 0.0
-0.000001 0.000025 0.0
-0.000001 0.000027 0.0
-0.000001 0.000030 0.0
-0.000001 0.000032 0.0
-0.000001 0.000035 0.0
-0.000001 0.000037 0.0
-0.000001 0.000040 0.0
-0.000001 0.000043 0.0
-0.000001 0.000046 0.0
-0.000001 0.000049 0.0
-0.000001 0.000053 0.0
-0.000001 0.000056 0.0
-0.000001 0.000060 0.0
-0.000002 0.000064 0.0
-0.000002 0.000068 0.0
-0.000002 0.000073 0.0
-0.000002 0.000077 0.0
-0.000002 0.000082 0.0
-0.000002 0.000087 0.0
-0.000002 0.000092 0.0
-0.000003 0.000098 0.0
-0.000003 0.000103 0.0
-0.000003 0.000109 0.0
-0.000003 0.000115 0.0
-0.000003 0.000122 0.0
-0.000003 0.000128 0.0
-0.000004 0.000135 0.0
-0.000004 0.000143 0.0
-0.000004 0.000150 0.0
-0.000004 0.000158 0.0
-0.000005 0.000166 0.0
-0.000005 0.000174 0.0
-0.000005 0.000183 0.0
-0.000006 0.000192 0.0
-0.000006 0.000201 0.0
-0.000006 0.000211 0.0
-0.000007 0.000221 0.0
-0.000007 0.000231 0.0
-0.000007 0.000241 0.0
-0.000008 0.000252 0.0
-0.000008 0.000263 0.0
-0.000009 0.000274 0.0
-0.000009 0.000285 0.0
-0.000010 0.000297 0.0
-0.000010 0.000309 0.0
-0.000010 0.000321 0.0
-0.000011 0.000333 0.0
-0.000012 0.000346 0.0
-0.000012 0.000358 0.0
-0.000013 0.000371 0.0
-0.000013 0.000384 0.0
-0.000014 0.000397 0.0
-0.000014 0.000410 0.0
-0.000015 0.000423 0.0
-0.000016 0.000436 0.0
-0.000016 0.000449 0.0
-0.000017 0.000461 0.0
-0.000018 0.000474 0.0
-0.000018 0.000486 0.0
-0.000019 0.000498 0.0
-0.000020 0.000509 0.0
-0.000021 0.000520 0.0
-0.000021 0.000530 0.0
-0.000022 0.000540 0.0
-0.000023 0.000549 0.0
-0.000024 0.000556 0.0
-0.000024 0.000563 0.0
-0.000025 0.000569 0.0
-0.000026 0.000574 0.0
-0.000027 0.000577 0.0
-0.000027 0.000578 0.0
-0.000028 0.000578 0.0
-0.000029 0.000575 0.0
-0.000029 0.000571 0.0
-0.000030 0.000564 0.0
-0.000031 0.000555 0.0
-0.000031 0.000542 0.0
-0.000032 0.000527 0.0
-0.000032 0.000509 0.0
-0.000033 0.000486 0.0
-0.000033 0.000460 0.0
-0.000033 0.000430 0.0
-0.000033 0.000395 0.0
-0.000034 0.000355 0.0
-0.000034 0.000309 0.0
-0.000033 0.000258 0.0
-0.000033 0.000201 0.0
-0.000033 0.000137 0.0
-0.000032 0.000066 0.0
-0.000032 -0.000012 0.0
-0.000031 -0.000099 0.0
-0.000030 -0.000194 0.0
-0.000029 -0.000299 0.0
-0.000027 -0.000414 0.0
-0.000026 -0.000539 0.0
-0.000024 -0.000675 0.0
-0.000021 -0.000824 0.0
-0.000019 -0.000985 0.0
-0.000016 -0.001160 0.0
0.000000 0.000000 0.0
0.000000 0.000000 0.0
0.000000 0.000000 0.0
0.000000 0.000000 0.0
0.000000 0.000000 0.0
0.000000 0.000001 0.0
0.000000 0.000001 0.0
0.000000 0.000001 0.0
0.000000 0.000002 0.0
0.000000 0.000002 0.0
0.000000 0.000002 0.0
0.000000 0.000003 0.0
0.000000 0.000003 0.0
0.000000 0.000004 0.0
0.000000 0.000005 0.0
0.000000 0.000005 0.0
0.000000 0.000006 0.0
0.000000 0.000007 0.0
0.000000 0.000008 0.0
0.000000 0.000009 0.0
0.000000 0.000010 0.0
0.000000 0.000011 0.0
0.000000 0.000012 0.0
0.000000 0.000014 0.0
0.000000 0.000015 0.0
0.000000 0.000016 0.0
0.000000 0.000018 0.0
0.000000 0.000020 0.0
0.000000 0.000021 0.0
0.000000 0.000023 0.0
0.000001 0.000025 0.0
0.000001 0.000027 0.0
0.000001 0.000030 0.0
0.000001 0.000032 0.0
0.000001 0.000035 0.0
0.000001 0.000037 0.0
0.000001 0.000040 0.0
0.000001 0.000043 0.0
0.000001 0.000046 0.0
0.000001 0.000049 0.0
0.000001 0.000053 0.0
0.000001 0.000056 0.0
0.000001 0.000060 0.0
0.000002 0.000064 0.0
0.000002 0.000068 0.0
0.000002 0.000073 0.0
0.000002 0.000077 0.0
0.000002 0.000082 0.0
0.000002 0.000087 0.0
0.000002 0.000092 0.0
0.000003 0.000098 0.0
0.000003 0.000103 0.0
0.000003 0.000109 0.0
0.000003 0.000115 0.0
0.000003 0.000122 0.0
0.000003 0.000128 0.0
0.000004 0.000135 0.0
0.000004 0.000143 0.0
0.000004 0.000150 0.0
0.000004 0.000158 0.0
0.000005 0.000166 0.0
0.000005 0.000174 0.0
0.000005 0.000183 0.0
0.000006 0.000192 0.0
0.000006 0.000201 0.0
0.000006 0.000211 0.0
0.000007 0.000221 0.0
0.000007 0.000231 0.0
0.000007 0.000241 0.0
0.000008 0.000252 0.0
0.000008 0.000263 0.0
0.000009 0.000274 0.0
0.000009 0.000285 0.0
0.000010 0.000297 0.0
0.000010 0.000309 0.0
0.000010 0.000321 0.0
0.000011 0.000333 0.0
0.000012 0.000346 0.0
0.000012 0.000358 0.0
0.000013 0.000371 0.0
0.000013 0.000384 0.0
0.000014 0.000397 0.0
0.000014 0.000410 0.0
0.000015 0.000423 0.0
0.000016 0.000436 0.0
0.000016 0.000449 0.0
0.000017 0.000461 0.0
0.000018 0.000474 0.0
0.000018 0.000486 0.0
0.000019 0.000498 0.0
0.000020 0.000509 0.0
0.000021 0.000520 0.0
0.000021 0.000530 0.0
0.000022 0.000540 0.0
0.000023 0.000549 0.0
0.000024 0.000556 0.0
0.000024 0.000563 0.0
0.000025 0.000569 0.0
0.000026 0.000574 0.0
0.000027 0.000577 0.0
0.000027 0.000578 0.0
0.000028 0.000578 0.0
0.000029 0.000575 0.0
0.000029 0.000571 0.0
0.000030 0.000564 0.0
0.000031 0.000555 0.0
0.000031 0.000542 0.0
0.000032 0.000527 0.0
0.000032 0.000509 0.0
0.000033 0.000486 0.0
0.000033 0.000460 0.0
0.000033 0.000430 0.0
0.000033 0.000395 0.0
0.000034 0.000355 0.0
0.000034 0.000309 0.0
0.000033 0.000258 0.0
0.000033 0.000201 0.0
0.000033 0.000137 0.0
0.000032 0.000066 0.0
0.000032 -0.000012 0.0
0.000031 -0.000099 0.0
0.000030 -0.000194 0.0
0.000029 -0.000299 0.0
0.000027 -0.000414 0.0
0.000026 -0.000539 0.0
0.000024 -0.000675 0.0
0.000021 -0.000824 0.0
0.000019 -0.000985 0.0
0.000016 -0.001160 0.0
0.000000 0.000000 0.0
0.000000 0.000000 0.0
0.000000 0.000000 0.0
0.000000 0.000000 0.0
0.000000 0.000000 0.0
0.000000 0.000001 0.0
0.000000 0.000001 0.0
0.000000 0.000001 0.0
0.000000 0.000002 0.0
0.000000 0.000002 0.0
0.000000 0.000002 0.0
0.000000 0.000003 0.0
0.000000 0.000003 0.0
0.000000 0.000004 0.0
0.000000 0.000005 0.0
0.000000 0.000005 0.0
0.000000 0.000006 0.0
0.000000 0.000007 0.0
0.000000 0.000008 0.0
0.000000 0.000009 0.0
0.000001 0.000010 0.0
0.000001 0.000011 0.0
0.000001 0.000012 0.0
0.000001 0.000014 0.0
0.000001 0.000015 0.0
0.000001 0.000016 0.0
0.000001 0.000018 0.0
0.000001 0.000020 0.0
0.000001 0.000021 0.0
0.000001 0.000023 0.0
0.000002 0.000025 0.0
0.000002 0.000027 0.0
0.000002 0.000030 0.0
0.000002 0.000032 0.0
0.000002 0.000034 0.0
0.000002 0.000037 0.0
0.000003 0.000040 0.0
0.000003 0.000043 0.0
0.000003 0.000046 0.0
0.000003 0.000049 0.0
0.000004 0.000052 0.0
0.000004 0.000056 0.0
0.000004 0.000060 0.0
0.000005 0.000064 0.0
0.000005 0.000068 0.0
0.000005 0.000072 0.0
0.000006 0.000077 0.0
0.000006 0.000081 0.0
0.000007 0.000086 0.0
0.000007 0.000092 0.0
0.000008 0.000097 0.0
0.000008 0.000103 0.0
0.000009 0.000109 0.0
0.000009 0.000115 0.0
0.000010 0.000121 0.0
0.000010 0.000128 0.0
0.000011 0.000135 0.0
0.000012 0.000142 0.0
0.000013 0.000150 0.0
0.000013 0.000157 0.0
0.000014 0.000165 0.0
0.000015 0.000174 0.0
0.000016 0.000182 0.0
0.000017 0.000191 0.0
0.000018 0.000200 0.0
0.000019 0.000210 0.0
0.000020 0.000220 0.0
0.000021 0.000230 0.0
0.000022 0.000240 0.0
0.000023 0.000251 0.0
0.000024 0.000261 0.0
0.000026 0.000273 0.0
0.000027 0.000284 0.0
0.000028 0.000296 0.0
0.000030 0.000307 0.0
0.000031 0.000320 0.0
0.000033 0.000332 0.0
0.000034 0.000344 0.0
0.000036 0.000357 0.0
0.000038 0.000370 0.0
0.000039 0.000382 0.0
0.000041 0.000395 0.0
0.000043 0.000408 0.0
0.000045 0.000421 0.0
0.000047 0.000434 0.0
0.000049 0.000447 0.0
0.000051 0.000459 0.0
0.000053 0.000472 0.0
0.000055 0.000484 0.0
0.000057 0.000496 0.0
0.000059 0.000507 0.0
0.000062 0.000518 0.0
0.000064 0.000528 0.0
0.000066 0.000538 0.0
0.000068 0.000547 0.0
0.000070 0.000554 0.0
0.000073 0.000561 0.0
0.000075 0.000567 0.0
0.000077 0.000572 0.0
0.000079 0.000575 0.0
0.000082 0.000576 0.0
0.000084 0.000576 0.0
0.000086 0.000573 0.0
0.000088 0.000569 0.0
0.000090 0.000562 0.0
0.000091 0.000553 0.0
0.000093 0.000541 0.0
0.000095 0.000526 0.0
0.000096 0.000507 0.0