# vtk DataFile Version 3.0
grids
ASCII
DATASET POLYDATA
POINTS 2592 float
0.000000 0.545455 0.000000
0.085714 0.545455 0.000000
0.171429 0.545455 0.000000
0.257143 0.545455 0.000000
0.342857 0.545455 0.000000
0.428571 0.545455 0.000000
0.514286 0.545455 0.000000
0.600000 0.545455 0.000000
0.685714 0.545455 0.000000
0.771429 0.545455 0.000000
0.857143 0.545455 0.000000
0.942857 0.545455 0.000000
1.028571 0.545455 0.000000
1.114286 0.545455 0.000000
1.200000 0.545455 0.000000
1.285714 0.545455 0.000000
1.371429 0.545455 0.000000
1.457143 0.545455 0.000000
1.542857 0.545455 0.000000
1.628572 0.545455 0.000000
1.714286 0.545455 0.000000
1.800000 0.545455 0.000000
1.885714 0.545455 0.000000
1.971429 0.545455 0.000000
2.057143 0.545455 0.000000
2.142857 0.545455 0.000000
2.228571 0.545455 0.000000
2.314286 0.545455 0.000000
2.400000 0.545455 0.000000
2.485714 0.545455 0.000000
2.571429 0.545455 0.000000
2.657143 0.545455 0.000000
2.742857 0.545455 0.000000
2.828572 0.545455 0.000000
2.914286 0.545455 0.000000
3.000000 0.545455 0.000000
0.000000 0.636364 0.000000
0.085714 0.636364 0.000000
0.171429 0.636364 0.000000
0.257143 0.636364 0.000000
0.342857 0.636364 0.000000
0.428571 0.636364 0.000000
0.514286 0.636364 0.000000
0.600000 0.636364 0.000000
0.685714 0.636364 0.000000
0.771429 0.636364 0.000000
0.857143 0.636364 0.000000
0.942857 0.636364 0.000000
1.028571 0.636364 0.000000
1.114286 0.636364 0.000000
1.200000 0.636364 0.000000
1.285714 0.636364 0.000000
1.371429 0.636364 0.000000
1.457143 0.636364 0.000000
1.542857 0.636364 0.000000
1.628572 0.636364 0.000000
1.714286 0.636364 0.000000
1.800000 0.636364 0.000000
1.885714 0.636364 0.000000
1.971429 0.636364 0.000000
2.057143 0.636364 0.000000
2.142857 0.636364 0.000000
2.228571 0.636364 0.000000
2.314286 0.636364 0.000000
2.400000 0.636364 0.000000
2.485714 0.636364 0.000000
2.571429 0.636364 0.000000
2.657143 0.636364 0.000000
2.742857 0.636364 0.000000
2.828572 0.636364 0.000000
2.914286 0.636364 0.000000
3.000000 0.636364 0.000000
0.000000 0.727273 0.000000
0.085714 0.727273 0.000000
0.171429 0.727273 0.000000
0.257143 0.727273 0.000000
0.342857 0.727273 0.000000
0.428571 0.727273 0.000000
0.514286 0.727273 0.000000
0.600000 0.727273 0.000000
0.685714 0.727273 0.000000
0.771429 0.727273 0.000000
0.857143 0.727273 0.000000
0.942857 0.727273 0.000000
1.028571 0.727273 0.000000
1.114286 0.727273 0.000000
1.200000 0.727273 0.000000
1.285714 0.727273 0.000000
1.371429 0.727273 0.000000
1.457143 0.727273 0.000000
1.542857 0.727273 0.000000
1.628572 0.727273 0.000000
1.714286 0.727273 0.000000
1.800000 0.727273 0.000000
1.885714 0.727273 0.000000
1.971429 0.727273 0.000000
2.057143 0.727273 0.000000
2.142857 0.727273 0.000000
2.228571 0.727273 0.000000
2.314286 0.727273 0.000000
2.400000 0.727273 0.000000
2.485714 0.727273 0.000000
2.571429 0.727273 0.000000
2.657143 0.727273 0.000000
2.742857 0.727273 0.000000
2.828572 0.727273 0.000000
2.914286 0.727273 0.000000
3.000000 0.727273 0.000000
0.000000 0.818182 0.000000
0.085714 0.818182 0.000000
0.171429 0.818182 0.000000
0.257143 0.818182 0.000000
0.342857 0.818182 0.000000
0.428571 0.818182 0.000000
0.514286 0.818182 0.000000
0.600000 0.818182 0.000000
0.685714 0.818182 0.000000
0.771429 0.818182 0.000000
0.857143 0.818182 0.000000
0.942857 0.818182 0.000000
1.028571 0.818182 0.000000
1.114286 0.818182 0.000000
1.200000 0.818182 0.000000
1.285714 0.818182 0.000000
1.371429 0.818182 0.000000
1.457143 0.818182 0.000000
1.542857 0.818182 0.000000
1.628572 0.818182 0.000000
1.714286 0.818182 0.000000
1.800000 0.818182 0.000000
1.885714 0.818182 0.000000
1.971429 0.818182 0.000000
2.057143 0.818182 0.000000
2.142857 0.818182 0.000000
2.228571 0.818182 0.000000
2.314286 0.818182 0.000000
2.400000 0.818182 0.000000
2.485714 0.818182 0.000000
2.571429 0.818182 0.000000
2.657143 0.818182 0.000000
2.742857 0.818182 0.000000
2.828572 0.818182 0.000000
2.914286 0.818182 0.000000
3.000000 0.818182 0.000000
0.000000 0.909091 0.000000
0.085714 0.909091 0.000000
0.171429 0.909091 0.000000
0.257143 0.909091 0.000000
0.342857 0.909091 0.000000
0.428571 0.909091 0.000000
0.514286 0.909091 0.000000
0.600000 0.909091 0.000000
0.685714 0.909091 0.000000
0.771429 0.909091 0.000000
0.857143 0.909091 0.000000
0.942857 0.909091 0.000000
1.028571 0.909091 0.000000
1.114286 0.909091 0.000000
1.200000 0.909091 0.000000
1.285714 0.909091 0.000000
1.371429 0.909091 0.000000
1.457143 0.909091 0.000000
1.542857 0.909091 0.000000
1.628572 0.909091 0.000000
1.714286 0.909091 0.000000
1.800000 0.909091 0.000000
1.885714 0.909091 0.000000
1.971429 0.909091 0.000000
2.057143 0.909091 0.000000
2.142857 0.909091 0.000000
2.228571 0.909091 0.000000
2.314286 0.909091 0.000000
2.400000 0.909091 0.000000
2.485714 0.909091 0.000000
2.571429 0.909091 0.000000
2.657143 0.909091 0.000000
2.742857 0.909091 0.000000
2.828572 0.909091 0.000000
2.914286 0.909091 0.000000
3.000000 0.909091 0.000000
0.000000 1.000000 0.000000
0.085714 1.000000 0.000000
0.171429 1.000000 0.000000
0.257143 1.000000 0.000000
0.342857 1.000000 0.000000
0.428571 1.000000 0.000000
0.514286 1.000000 0.000000
0.600000 1.000000 0.000000
0.685714 1.000000 0.000000
0.771429 1.000000 0.000000
0.857143 1.000000 0.000000
0.942857 1.000000 0.000000
1.028571 1.000000 0.000000
1.114286 1.000000 0.000000
1.200000 1.000000 0.000000
1.285714 1.000000 0.000000
1.371429 1.000000 0.000000
1.457143 1.000000 0.000000
1.542857 1.000000 0.000000
1.628572 1.000000 0.000000
1.714286 1.000000 0.000000
1.800000 1.000000 0.000000
1.885714 1.000000 0.000000
1.971429 1.000000 0.000000
2.057143 1.000000 0.000000
2.142857 1.000000 0.000000
2.228571 1.000000 0.000000
2.314286 1.000000 0.000000
2.400000 1.000000 0.000000
2.485714 1.000000 0.000000
2.571429 1.000000 0.000000
2.657143 1.000000 0.000000
2.742857 1.000000 0.000000
2.828572 1.000000 0.000000
2.914286 1.000000 0.000000
3.000000 1.000000 0.000000
0.000000 0.545455 0.090909
0.085714 0.545455 0.090909
0.171429 0.545455 0.090909
0.257143 0.545455 0.090909
0.342857 0.545455 0.090909
0.428571 0.545455 0.090909
0.514286 0.545455 0.090909
0.600000 0.545455 0.090909
0.685714 0.545455 0.090909
0.771429 0.545455 0.090909
0.857143 0.545455 0.090909
0.942857 0.545455 0.090909
1.028571 0.545455 0.090909
1.114286 0.545455 0.090909
1.200000 0.545455 0.090909
1.285714 0.545455 0.090909
1.371429 0.545455 0.090909
1.457143 0.545455 0.090909
1.542857 0.545455 0.090909
1.628572 0.545455 0.090909
1.714286 0.545455 0.090909
1.800000 0.545455 0.090909
1.885714 0.545455 0.090909
1.971429 0.545455 0.090909
2.057143 0.545455 0.090909
2.142857 0.545455 0.090909
2.228571 0.545455 0.090909
2.314286 0.545455 0.090909
2.400000 0.545455 0.090909
2.485714 0.545455 0.090909
2.571429 0.545455 0.090909
2.657143 0.545455 0.090909
2.742857 0.545455 0.090909
2.828572 0.545455 0.090909
2.914286 0.545455 0.090909
3.000000 0.545455 0.090909
0.000000 0.636364 0.090909
0.085714 0.636364 0.090909
0.171429 0.636364 0.090909
0.257143 0.636364 0.090909
0.342857 0.636364 0.090909
0.428571 0.636364 0.090909
0.514286 0.636364 0.090909
0.600000 0.636364 0.090909
0.685714 0.636364 0.090909
0.771429 0.636364 0.090909
0.857143 0.636364 0.090909
0.942857 0.636364 0.090909
1.028571 0.636364 0.090909
1.114286 0.636364 0.090909
1.200000 0.636364 0.090909
1.285714 0.636364 0.090909
1.371429 0.636364 0.090909
1.457143 0.636364 0.090909
1.542857 0.636364 0.090909
1.628572 0.636364 0.090909
1.714286 0.636364 0.090909
1.800000 0.636364 0.090909
1.885714 0.636364 0.090909
1.971429 0.636364 0.090909
2.057143 0.636364 0.090909
2.142857 0.636364 0.090909
2.228571 0.636364 0.090909
2.314286 0.636364 0.090909
2.400000 0.636364 0.090909
2.485714 0.636364 0.090909
2.571429 0.636364 0.090909
2.657143 0.636364 0.090909
2.742857 0.636364 0.090909
2.828572 0.636364 0.090909
2.914286 0.636364 0.090909
3.000000 0.636364 0.090909
0.000000 0.727273 0.090909
0.085714 0.727273 0.090909
0.171429 0.727273 0.090909
0.257143 0.727273 0.090909
0.342857 0.727273 0.090909
0.428571 0.727273 0.090909
0.514286 0.727273 0.090909
0.600000 0.727273 0.090909
0.685714 0.727273 0.090909
0.771429 0.727273 0.090909
0.857143 0.727273 0.090909
0.942857 0.727273 0.090909
1.028571 0.727273 0.090909
1.114286 0.727273 0.090909
1.200000 0.727273 0.090909
1.285714 0.727273 0.090909
1.371429 0.727273 0.090909
1.457143 0.727273 0.090909
1.542857 0.727273 0.090909
1.628572 0.727273 0.090909
1.714286 0.727273 0.090909
1.800000 0.727273 0.090909
1.885714 0.727273 0.090909
1.971429 0.727273 0.090909
2.057143 0.727273 0.090909
2.142857 0.727273 0.090909
2.228571 0.727273 0.090909
2.314286 0.727273 0.090909
2.400000 0.727273 0.090909
2.485714 0.727273 0.090909
2.571429 0.727273 0.090909
2.657143 0.727273 0.090909
2.742857 0.727273 0.090909
2.828572 0.727273 0.090909
2.914286 0.727273 0.090909
3.000000 0.727273 0.090909
0.000000 0.818182 0.090909
0.085714 0.818182 0.090909
0.171429 0.818182 0.090909
0.257143 0.818182 0.090909
0.342857 0.818182 0.090909
0.428571 0.818182 0.090909
0.514286 0.818182 0.090909
0.600000 0.818182 0.090909
0.685714 0.818182 0.090909
0.771429 0.818182 0.090909
0.857143 0.818182 0.090909
0.942857 0.818182 0.090909
1.028571 0.818182 0.090909
1.114286 0.818182 0.090909
1.200000 0.818182 0.090909
1.285714 0.818182 0.090909
1.371429 0.818182 0.090909
1.457143 0.818182 0.090909
1.542857 0.818182 0.090909
1.628572 0.818182 0.090909
1.714286 0.818182 0.090909
1.800000 0.818182 0.090909
1.885714 0.818182 0.090909
1.971429 0.818182 0.090909
2.057143 0.818182 0.090909
2.142857 0.818182 0.090909
2.228571 0.818182 0.090909
2.314286 0.818182 0.090909
2.400000 0.818182 0.090909
2.485714 0.818182 0.090909
2.571429 0.818182 0.090909
2.657143 0.818182 0.090909
2.742857 0.818182 0.090909
2.828572 0.818182 0.090909
2.914286 0.818182 0.090909
3.000000 0.818182 0.090909
0.000000 0.909091 0.090909
0.085714 0.909091 0.090909
0.171429 0.909091 0.090909
0.257143 0.909091 0.090909
0.342857 0.909091 0.090909
0.428571 0.909091 0.090909
0.514286 0.909091 0.090909
[...]
POINT_DATA 2592
VECTORS attr0 float
0.000000 0.000000 0.000000 
0.000000 0.000000 0.000000 
0.000000 0.000000 0.000000 
0.000000 0.000000 0.000000 
0.000000 0.000000 0.000000 
0.000000 0.000000 0.000000 
0.000000 0.000000 0.000000 
0.000000 0.000000 0.000000 
0.000000 0.000000 0.000000 
0.000000 0.000000 0.000000 
0.000000 0.000000 0.000000 
0.000000 0.000000 0.000000 
0.000000 0.000000 0.000000 
0.000000 0.000000 0.000000 
0.000000 0.000000 0.000000 
0.000000 0.000000 0.000000 
0.000000 0.000000 0.000000 
0.000000 0.000000 0.000000 
0.000000 0.000000 0.000000 
0.000000 0.000000 0.000000 
0.000000 0.000000 0.000000 
0.000000 0.000000 0.000000 
0.000000 0.000000 0.000000 
0.000000 0.000000 0.000000 
0.000000 0.000000 0.000000 
0.000000 0.000000 0.000000 
0.000000 0.000000 0.000000 
0.000000 0.000000 0.000000 
0.000000 0.000000 0.000000 
0.000000 0.000000 0.000000 
0.000000 0.000000 0.000000 
0.000000 0.000000 0.000000 
0.000000 0.000000 0.000000 
0.000000 0.000000 0.000000 
0.000000 0.000000 0.000000 
0.000000 0.000000 1.000000 
0.000000 0.000000 0.000000 
0.000000 0.000000 0.000000 
0.000000 0.000000 0.000000 
0.000000 0.000000 0.000000 
0.000000 0.000000 0.000000 
0.000000 0.000000 0.000000 
0.000000 0.000000 0.000000 
0.000000 0.000000 0.000000 
0.000000 0.000000 0.000000 
0.000000 0.000000 0.000000 
0.000000 0.000000 0.000000 
0.000000 0.000000 0.000000 
0.000000 0.000000 0.000000 
0.000000 0.000000 0.000000 
0.000000 0.000000 0.000000 
0.000000 0.000000 0.000000 
0.000000 0.000000 0.000000 
0.000000 0.000000 0.000000 
0.000000 0.000000 0.000000 
0.000000 0.000000 0.000000 
0.000000 0.000000 0.000000 
0.000000 0.000000 0.000000 
0.000000 0.000000 0.000000 
0.000000 0.000000 0.000000 
0.000000 0.000000 0.000000 
0.000000 0.000000 0.000000 
0.000000 0.000000 0.000000 
0.000000 0.000000 0.000000 
0.000000 0.000000 0.000000 
0.000000 0.000000 0.000000 
0.000000 0.000000 0.000000 
0.000000 0.000000 0.000000 
0.000000 0.000000 0.000000 
0.000000 0.000000 0.000000 
0.000000 0.000000 0.000000 
0.000000 0.000000 1.000000 
0.000000 0.000000 0.000000 
0.000000 0.000000 0.000000 
0.000000 0.000000 0.000000 
0.000000 0.000000 0.000000 
0.000000 0.000000 0.000000 
0.000000 0.000000 0.000000 
0.000000 0.000000 0.000000 
0.000000 0.000000 0.000000 
0.000000 0.000000 0.000000 
0.000000 0.000000 0.000000 
0.000000 0.000000 0.000000 
0.000000 0.000000 0.000000 
0.000000 0.000000 0.000000 
0.000000 0.000000 0.000000 
0.000000 0.000000 0.000000 
0.000000 0.000000 0.000000 
0.000000 0.000000 0.000000 
0.000000 0.000000 0.000000 
0.000000 0.000000 0.000000 
0.000000 0.000000 0.000000 
0.000000 0.000000 0.000000 
0.000000 0.000000 0.000000 
0.000000 0.000000 0.000000 
0.000000 0.000000 0.000000 
0.000000 0.000000 0.000000 
0.000000 0.000000 0.000000 
0.000000 0.000000 0.000000 
0.000000 0.000000 0.000000 
0.000000 0.000000 0.000000 
0.000000 0.000000 0.000000 
0.000000 0.000000 0.000000 
0.000000 0.000000 0.000000 
0.000000 0.000000 0.000000 
0.000000 0.000000 0.000000 
0.000000 0.000000 0.000000 
0.000000 0.000000 1.000000 
0.000000 0.000000 0.000000 
0.000000 0.000000 0.000000 
0.000000 0.000000 0.000000 
0.000000 0.000000 0.000000 
0.000000 0.000000 0.000000 
0.000000 0.000000 0.000000 
0.000000 0.000000 0.000000 
0.000000 0.000000 0.000000 
0.000000 0.000000 0.000000 
0.000000 0.000000 0.000000 
0.000000 0.000000 0.000000 
0.000000 0.000000 0.000000 
0.000000 0.000000 0.000000 
0.000000 0.000000 0.000000 
0.000000 0.000000 0.000000 
0.000000 0.000000 0.000000 
0.000000 0.000000 0.000000 
0.000000 0.000000 0.000000 
0.000000 0.000000 0.000000 
0.000000 0.000000 0.000000 
0.000000 0.000000 0.000000 
0.000000 0.000000 0.000000 
0.000000 0.000000 0.000000 
0.000000 0.000000 0.000000 
0.000000 0.000000 0.000000 
0.000000 0.000000 0.000000 
0.000000 0.000000 0.000000 
0.000000 0.000000 0.000000 
0.000000 0.000000 0.000000 
0.000000 0.000000 0.000000 
0.000000 0.000000 0.000000 
0.000000 0.000000 0.000000 
0.000000 0.000000 0.000000 
0.000000 0.000000 0.000000 
0.000000 0.000000 0.000000 
0.000000 0.000000 1.000000 
0.000000 0.000000 0.000000 
0.000000 0.000000 0.000000 
0.000000 0.000000 0.000000 
0.000000 0.000000 0.000000 
0.000000 0.000000 0.000000 
0.000000 0.000000 0.000000 
0.000000 0.000000 0.000000 
0.000000 0.000000 0.000000 
0.000000 0.000000 0.000000 
0.000000 0.000000 0.000000 
0.000000 0.000000 0.000000 
0.000000 0.000000 0.000000 
0.000000 0.000000 0.000000 
0.000000 0.000000 0.000000 
0.000000 0.000000 0.000000 
0.000000 0.000000 0.000000 
0.000000 0.000000 0.000000 
0.000000 0.000000 0.000000 
0.000000 0.000000 0.000000 
0.000000 0.000000 0.000000 
0.000000 0.000000 0.000000 
0.000000 0.000000 0.000000 
0.000000 0.000000 0.000000 
0.000000 0.000000 0.000000 
0.000000 0.000000 0.000000 
0.000000 0.000000 0.000000 
0.000000 0.000000 0.000000 
0.000000 0.000000 0.000000 
0.000000 0.000000 0.000000 
0.000000 0.000000 0.000000 
0.000000 0.000000 0.000000 
0.000000 0.000000 0.000000 
0.000000 0.000000 0.000000 
0.000000 0.000000 0.000000 
0.000000 0.000000 0.000000 
0.000000 0.000000 1.000000 
0.000000 0.000000 0.000000 
0.000000 0.000000 0.000000 
0.000000 0.000000 0.000000 
0.000000 0.000000 0.000000 
0.000000 0.000000 0.000000 
0.000000 0.000000 0.000000 
0.000000 0.000000 0.000000 
0.000000 0.000000 0.000000 
0.000000 0.000000 0.000000 
0.000000 0.000000 0.000000 
0.000000 0.000000 0.000000 
0.000000 0.000000 0.000000 
0.000000 0.000000 0.000000 
0.000000 0.000000 0.000000 
0.000000 0.000000 0.000000 
0.000000 0.000000 0.000000 
0.000000 0.000000 0.000000 
0.000000 0.000000 0.000000 
0.000000 0.000000 0.000000 
0.000000 0.000000 0.000000 
0.000000 0.000000 0.000000 
0.000000 0.000000 0.000000 
0.000000 0.000000 0.000000 
0.000000 0.000000 0.000000 
0.000000 0.000000 0.000000 
0.000000 0.000000 0.000000 
0.000000 0.000000 0.000000 
0.000000 0.000000 0.000000 
0.000000 0.000000 0.000000 
0.000000 0.000000 0.000000 
0.000000 0.000000 0.000000 
0.000000 0.000000 0.000000 
0.000000 0.000000 0.000000 
0.000000 0.000000 0.000000 
0.000000 0.000000 0.000000 
0.000000 0.000000 0.000000 
0.000000 0.000000 0.000000 
-0.000000 0.000002 0.000000 
-0.000001 0.000004 0.000001 
-0.000003 0.000006 0.000002 
-0.000005 0.000009 0.000003 
-0.000008 0.000012 0.000004 
-0.000013 0.000017 0.000005 
-0.000021 0.000024 0.000007 
-0.000030 0.000032 0.000010 
-0.000043 0.000041 0.000013 
-0.000060 0.000051 0.000016 
-0.000080 0.000058 0.000018 
-0.000103 0.000059 0.000019 
-0.000126 0.000047 0.000016 
-0.000142 0.000006 0.000005 
-0.000139 -0.000083 -0.000021 
-0.000097 -0.000255 -0.000071 
0.000020 -0.000563 -0.000162 
0.000269 -0.001084 -0.000317 
0.000739 -0.001931 -0.000571 
0.001568 -0.003263 -0.000972 
0.002957 -0.005302 -0.001589 
0.005199 -0.008335 -0.002513 
0.008704 -0.012729 -0.003863 
0.014036 -0.018914 -0.005792 
0.021947 -0.027341 -0.008484 
0.033403 -0.038370 -0.012158 
0.049603 -0.052036 -0.017072 
0.071956 -0.067598 -0.023530 
0.101962 -0.082712 -0.031890 
0.140830 -0.091982 -0.042465 
0.188331 -0.084486 -0.054743 
0.239469 -0.039454 -0.063310 
0.275389 0.082403 -0.039773 
0.240953 0.361827 0.141726 
0.000000 1.000000 1.000000 
0.000000 0.000000 0.000000 
-0.000000 0.000002 0.000000 
-0.000000 0.000003 0.000001 
-0.000001 0.000005 0.000002 
-0.000003 0.000007 0.000002 
-0.000005 0.000010 0.000003 
-0.000008 0.000014 0.000005 
-0.000012 0.000020 0.000007 
-0.000018 0.000027 0.000009 
-0.000027 0.000036 0.000012 
-0.000038 0.000045 0.000016 
-0.000052 0.000054 0.000019 
-0.000070 0.000059 0.000020 
-0.000089 0.000055 0.000019 
-0.000109 0.000031 0.000011 
-0.000121 -0.000030 -0.000009 
-0.000117 -0.000154 -0.000051 
-0.000077 -0.000383 -0.000129 
0.000030 -0.000780 -0.000264 
0.000254 -0.001438 -0.000487 
0.000676 -0.002490 -0.000846 
0.001415 -0.004121 -0.001402 
0.002650 -0.006579 -0.002243 
0.004641 -0.010186 -0.003485 
0.007757 -0.015332 -0.005274 
0.012518 -0.022452 -0.007794 
0.019642 -0.031946 -0.011269 
0.030123 -0.044005 -0.015967 
0.045322 -0.058250 -0.022213 
0.067079 -0.073006 -0.030391 
0.097687 -0.083901 -0.040834 
0.139202 -0.081161 -0.053004 
0.190367 -0.044336 -0.061348 
0.236549 0.068464 -0.037228 
0.222930 0.345913 0.144966 
0.000000 1.000000 1.000000 
0.000000 0.000000 0.000000 
0.000000 0.000001 0.000000 
-0.000000 0.000002 0.000001 
-0.000000 0.000003 0.000001 
-0.000001 0.000005 0.000002 
-0.000002 0.000007 0.000003 
-0.000003 0.000010 0.000004 
-0.000005 0.000014 0.000006 
-0.000008 0.000019 0.000008 
-0.000013 0.000026 0.000011 
-0.000019 0.000035 0.000014 
-0.000027 0.000043 0.000018 
-0.000038 0.000051 0.000021 
-0.000051 0.000055 0.000022 
-0.000067 0.000048 0.000019 
-0.000083 0.000022 0.000007 
-0.000096 -0.000043 -0.000021 
-0.000100 -0.000171 -0.000076 
-0.000082 -0.000405 -0.000177 
-0.000022 -0.000806 -0.000349 
0.000115 -0.001468 -0.000631 
0.000384 -0.002518 -0.001078 
0.000868 -0.004138 -0.001767 
0.001695 -0.006569 -0.002801 
0.003057 -0.010121 -0.004319 
0.005240 -0.015169 -0.006498 
0.008677 -0.022130 -0.009565 
0.014032 -0.031381 -0.013808 
0.022344 -0.043064 -0.019602 
0.035274 -0.056611 -0.027418 
0.055388 -0.069601 -0.037721 
0.086151 -0.075010 -0.050111 
0.130065 -0.054579 -0.059060 
0.179882 0.036650 -0.035546 
0.189402 0.305228 0.146859 
0.000000 1.000000 1.000000 
0.000000 0.000000 -0.000000 
0.000000 0.000000 0.000000 
0.000000 0.000001 0.000000 
0.000000 0.000001 0.000001 
-0.000000 0.000002 0.000001 
-0.000000 0.000003 0.000002 
-0.000001 0.000005 0.000003 
-0.000001 0.000007 0.000004 
-0.000002 0.000010 0.000006 
-0.000004 0.000015 0.000008 
-0.000006 0.000020 0.000012 
-0.000009 0.000027 0.000015 
-0.000013 0.000034 0.000020 
-0.000018 0.000041 0.000024 
-0.000025 0.000046 0.000026 
-0.000034 0.000045 0.000024 
-0.000045 0.000030 0.000014 
-0.000056 -0.000011 -0.000011 
-0.000066 -0.000097 -0.000064 
-0.000070 -0.000258 -0.000161 
-0.000060 -0.000540 -0.000331 
-0.000022 -0.001010 -0.000612 
0.000066 -0.001768 -0.001062 
0.000243 -0.002949 -0.001763 
0.000568 -0.004746 -0.002827 
0.001137 -0.007411 -0.004409 
0.002110 -0.011277 -0.006721 
0.003756 -0.016765 -0.010059 
0.006551 -0.024364 -0.014846 
0.011363 -0.034511 -0.021691 
0.019789 -0.047062 -0.031340 
0.034586 -0.059345 -0.043925 
0.059591 -0.059554 -0.054741 
0.095822 -0.006121 -0.035362 
0.120411 0.230394 0.142874 
0.000000 1.000000 1.000000 
0.000000 0.000000 0.000000 
0.000000 0.000000 0.000000 
0.000000 0.000000 0.000000 
0.000000 0.000000 0.000000 
0.000000 0.000000 0.000000 
0.000000 0.000001 0.000001 
0.000000 0.000001 0.000001 
0.000000 0.000002 0.000002 
0.000000 0.000003 0.000003 
0.000000 0.000004 0.000004 
0.000000 0.000006 0.000006 
0.000000 0.000009 0.000009 
0.000000 0.000013 0.000013 
0.000000 0.000018 0.000018 
0.000000 0.000023 0.000023 
0.000000 0.000029 0.000029 
0.000000 0.000035 0.000035 
0.000000 0.000038 0.000038 
0.000000 0.000035 0.000035 
0.000000 0.000018 0.000018 
0.000000 -0.000023 -0.000023 
0.000000 -0.000105 -0.000105 
0.000000 -0.000257 -0.000257 
0.000000 -0.000520 -0.000520 
0.000000 -0.000958 -0.000958 
0.000000 -0.001665 -0.001665 
0.000000 -0.002788 -0.002788 
0.000000 -0.004553 -0.004553 
0.000000 -0.007334 -0.007334 
0.000000 -0.011752 -0.011752 
0.000000 -0.018785 -0.018785 
0.000000 -0.029461 -0.029461 
0.000000 -0.041830 -0.041830 
0.000000 -0.034187 -0.034187 
0.000000 0.115539 0.115539 
0.000000 1.000000 1.000000 
0.000000 0.000000 0.000000 
0.000000 0.000000 0.000000 
0.000000 0.000000 0.000000 
0.000000 0.000000 0.000000 
0.000000 0.000000 0.000000 
0.000000 0.000000 0.000000 
0.000000 0.000000 0.000000 
0.000000 0.000000 0.000000 
0.000000 0.000000 0.000000 
0.000000 0.000000 0.000000 
0.000000 0.000000 0.000000 
0.000000 0.000000 0.000000 
0.000000 0.000000 0.000000 
0.000000 0.000000 0.000000 
0.000000 0.000000 0.000000 
0.000000 0.000000 0.000000 
0.000000 0.000000 0.000000 
0.000000 0.000000 0.000000 
0.000000 0.000000 0.000000 
0.000000 0.000000 0.000000 
0.000000 0.000000 0.000000 
0.000000 0.000000 0.000000 
0.000000 0.000000 0.000000 
0.000000 0.000000 0.000000 
0.000000 0.000000 0.000000 
0.000000 0.000000 0.000000 
0.000000 0.000000 0.000000 
0.000000 0.000000 0.000000 
0.000000 0.000000 0.000000 
0.000000 0.000000 0.000000 
0.000000 0.000000 0.000000 
0.000000 0.000000 0.000000 
0.000000 0.000000 0.000000 
0.000000 0.000000 0.000000 
0.000000 0.000000 0.000000 
0.000000 1.000000 0.000000 
0.000000 -0.000000 -0.000000 
-0.000001 0.000004 0.000002 
-0.000002 0.000007 0.000003 
-0.000004 0.000011 0.000006 
-0.000008 0.000015 0.000008 
-0.000013 0.000021 0.000012 
-0.000021 0.000030 0.000016 
-0.000031 0.000040 0.000022 
-0.000045 0.000053 0.000029 
-0.000062 0.000067 0.000037 
-0.000084 0.000079 0.000044 
-0.000108 0.000086 0.000048 
-0.000133 0.000079 0.000044 
-0.000152 0.000041 0.000023 
-0.000152 -0.000051 -0.000028 
-0.000113 -0.000238 -0.000131 
0.000001 -0.000582 -0.000321 
0.000250 -0.001177 -0.000649 
0.000724 -0.002161 -0.001193 
0.001566 -0.003731 -0.002061 
0.002983 -0.006164 -0.003406 
0.005278 -0.009829 -0.005435 
0.008877 -0.015207 -0.008420 
0.014362 -0.022884 -0.012699 
0.022503 -0.033526 -0.018680 
0.034270 -0.047774 -0.026807 
0.050820 -0.066033 -0.037511 
0.073395 -0.088048 -0.051093 
0.103083 -0.112122 -0.067493 
0.140263 -0.133792 -0.085811 
0.183463 -0.143695 -0.103184 
0.227081 -0.124491 -0.111897 
0.257297 -0.047081 -0.091866 
0.246724 0.132257 0.007692 
0.157174 0.468530 0.304092 
0.000000 1.000000 1.000000 
0.000000 0.000000 0.000000 
-0.000000 0.000003 0.000002 
-0.000001 0.000006 0.000003 
-0.000002 0.000009 0.000005 
-0.000004 0.000013 0.000008 
-0.000007 0.000018 0.000011 
-0.000011 0.000025 0.000015 
-0.000017 0.000035 0.000021 
-0.000025 0.000046 0.000028 
-0.000036 0.000059 0.000036 
-0.000049 0.000072 0.000043 
-0.000065 0.000081 0.000049 
-0.000082 0.000080 0.000048 
-0.000099 0.000056 0.000033 
-0.000108 -0.000010 -0.000008 
-0.000101 -0.000152 -0.000095 
-0.000057 -0.000419 -0.000259 
0.000052 -0.000890 -0.000548 
0.000276 -0.001679 -0.001031 
0.000690 -0.002954 -0.001810 
0.001409 -0.004947 -0.003027 
0.002600 -0.007977 -0.004877 
0.004507 -0.012461 -0.007618 
0.007469 -0.018921 -0.011576 
0.011948 -0.027964 -0.017148 
0.018558 -0.040214 -0.024777 
0.028086 -0.056151 -0.034912 
0.041497 -0.075776 -0.047891 
0.059886 -0.097963 -0.063730 
0.084281 -0.119273 -0.081640 
0.115038 -0.131858 -0.098874 
0.150198 -0.119955 -0.107773 
0.181609 -0.054651 -0.088122 
0.187856 0.111985 0.011216 
0.130361 0.446409 0.307485 
0.000000 1.000000 1.000000 
0.000000 0.000000 0.000000 
-0.000000 0.000002 0.000001 
-0.000000 0.000004 0.000003 
-0.000001 0.000006 0.000004 
-0.000001 0.000009 0.000006 
-0.000002 0.000013 0.000009 
-0.000004 0.000018 0.000013 
-0.000006 0.000025 0.000018 
-0.000009 0.000034 0.000025 
-0.000014 0.000044 0.000032 
-0.000019 0.000055 0.000040 
-0.000026 0.000066 0.000048 
-0.000035 0.000070 0.000051 
-0.000044 0.000062 0.000044 
-0.000053 0.000028 0.000018 
-0.000058 -0.000053 -0.000043 
-0.000054 -0.000217 -0.000165 
-0.000030 -0.000515 -0.000386 
0.000029 -0.001027 -0.000766 
0.000150 -0.001870 -0.001390 
0.000373 -0.003211 -0.002381 
0.000761 -0.005281 -0.003909 
0.001405 -0.008388 -0.006202 
0.002438 -0.012934 -0.009558 
0.004049 -0.019406 -0.014347 
0.006505 -0.028357 -0.021003 
0.010178 -0.040322 -0.029993 
0.015584 -0.055636 -0.041736 
0.023431 -0.074040 -0.056416 
0.034649 -0.093833 -0.073541 
0.050264 -0.110092 -0.090800 
0.070718 -0.110901 -0.101020 
0.093539 -0.069847 -0.084193 
0.107521 0.066675 0.011651 
0.084507 0.390974 0.306303 
0.000000 1.000000 1.000000 
0.000000 0.000000 0.000000 
0.000000 0.000001 0.000001 
0.000000 0.000002 0.000002 
0.000000 0.000003 0.000003 
0.000000 0.000005 0.000005 
0.000000 0.000007 0.000007 
0.000000 0.000010 0.000010 
0.000000 0.000014 0.000014 
0.000000 0.000019 0.000019 
0.000000 0.000026 0.000026 
0.000000 0.000033 0.000033 
0.000000 0.000042 0.000042 
0.000000 0.000049 0.000049 
0.000000 0.000051 0.000051 
0.000000 0.000043 0.000043 
0.000000 0.000013 0.000013 
0.000000 -0.000054 -0.000054 
0.000000 -0.000186 -0.000186 
0.000000 -0.000425 -0.000425 
0.000000 -0.000831 -0.000831 
0.000000 -0.001496 -0.001496 
0.000000 -0.002547 -0.002547 
0.000000 -0.004163 -0.004163 
0.000000 -0.006581 -0.006581 
0.000000 -0.010111 -0.010111 
0.000000 -0.015139 -0.015139 
0.000000 -0.022119 -0.022119 
0.000000 -0.031537 -0.031537 
0.000000 -0.043799 -0.043799 
0.000000 -0.058900 -0.058900 
0.000000 -0.075447 -0.075447 
0.000000 -0.087763 -0.087763 
0.000000 -0.077695 -0.077695 
0.000000 0.006331 0.006331 
0.000000 0.291317 0.291317 
0.000000 1.000000 1.000000 
0.000000 -0.000000 0.000000 
-0.000000 0.000000 0.000000 
-0.000000 0.000000 0.000001 
-0.000000 0.000001 0.000001 
0.000000 0.000001 0.000002 
0.000000 0.000002 0.000003 
0.000001 0.000003 0.000005 
0.000001 0.000004 0.000007 
0.000002 0.000006 0.000010 
0.000004 0.000008 0.000015 
0.000006 0.000012 0.000020 
0.000009 0.000015 0.000027 
0.000013 0.000020 0.000034 
0.000018 0.000024 0.000041 
0.000025 0.000026 0.000046 
0.000034 0.000024 0.000045 
0.000045 0.000014 0.000030 
0.000056 -0.000011 -0.000011 
0.000066 -0.000064 -0.000097 
0.000070 -0.000161 -0.000258 
0.000060 -0.000331 -0.000540 
0.000022 -0.000612 -0.001010 
-0.000066 -0.001062 -0.001768 
-0.000243 -0.001763 -0.002949 
-0.000568 -0.002827 -0.004746 
-0.001137 -0.004409 -0.007411 
-0.002110 -0.006721 -0.011277 
-0.003756 -0.010059 -0.016765 
-0.006551 -0.014846 -0.024364 
-0.011363 -0.021691 -0.034511 
-0.019789 -0.031340 -0.047062 
-0.034586 -0.043925 -0.059345 
-0.059591 -0.054741 -0.059554 
-0.095822 -0.035362 -0.006121 
-0.120411 0.142874 0.230394 
0.000000 1.000000 1.000000 
0.000000 0.000000 0.000000 
-0.000000 0.000000 0.000000 
0.000000 0.000000 0.000000 
-0.000000 0.000000 0.000000 
0.000000 0.000000 0.000000 
0.000000 0.000000 0.000000 
0.000000 0.000000 0.000000 
0.000000 0.000000 0.000000 
0.000000 0.000000 0.000000 
0.000000 0.000000 0.000000 
0.000000 0.000000 0.000000 
-0.000000 0.000000 0.000000 
0.000000 0.000000 0.000000 
0.000000 0.000000 0.000000 
0.000000 0.000000 0.000000 
0.000000 0.000000 0.000000 
0.000000 0.000000 0.000000 
0.000000 0.000000 0.000000 
0.000000 0.000000 0.000000 
0.000000 0.000000 0.000000 
-0.000000 0.000000 0.000000 
0.000000 0.000000 0.000000 
-0.000000 0.000000 0.000000 
0.000000 0.000000 0.000000 
0.000000 0.000000 0.000000 
0.000000 0.000000 0.000000 
0.000000 0.000000 0.000000 
0.000000 0.000000 0.000000 
0.000000 0.000000 0.000000 
0.000000 0.000000 0.000000 
0.000000 0.000000 0.000000 
0.000000 0.000000 0.000000 
0.000000 0.000000 0.000000 
0.000000 0.000000 0.000000 
-0.000000 0.000000 0.000000 
0.000000 1.000000 0.000000 
0.000000 0.000000 0.000000 
-0.000001 0.000005 0.000003 
-0.000002 0.000009 0.000007 
-0.000005 0.000014 0.000010 
-0.000008 0.000020 0.000015 
-0.000013 0.000028 0.000021 
-0.000020 0.000038 0.000029 
-0.000030 0.000051 0.000039 
-0.000042 0.000066 0.000050 
-0.000057 0.000082 0.000062 
-0.000076 0.000094 0.000072 
-0.000095 0.000097 0.000073 
-0.000112 0.000077 0.000058 
-0.000119 0.000014 0.000010 
-0.000104 -0.000127 -0.000098 
-0.000042 -0.000400 -0.000307 
0.000102 -0.000888 -0.000680 
0.000389 -0.001715 -0.001312 
0.000911 -0.003063 -0.002342 
0.001806 -0.005187 -0.003965 
0.003276 -0.008439 -0.006450 
0.005608 -0.013287 -0.010156 
0.009199 -0.020326 -0.015542 
0.014576 -0.030265 -0.023167 
0.022413 -0.043879 -0.033658 
0.033514 -0.061860 -0.047628 
0.048750 -0.084525 -0.065512 
0.068882 -0.111265 -0.087230 
0.094199 -0.139579 -0.111592 
0.123837 -0.163522 -0.135219 
0.154616 -0.171431 -0.150588 
0.179351 -0.143102 -0.142536 
0.185185 -0.047528 -0.082313 
0.154770 0.155575 0.080488 
0.079083 0.503732 0.420400 
0.000000 1.000000 1.000000 
0.000000 0.000000 0.000000 
-0.000000 0.000004 0.000003 
-0.000001 0.000008 0.000006 
-0.000002 0.000012 0.000010 
-0.000003 0.000017 0.000014 
-0.000006 0.000024 0.000020 
-0.000009 0.000033 0.000027 
-0.000013 0.000044 0.000037 
-0.000018 0.000058 0.000048 