# vtk DataFile Version 3.0
grids
ASCII
DATASET POLYDATA
POINTS 5854 float
1.494118 0.000000 0.0
1.505882 0.000000 0.0
1.517647 0.000000 0.0
1.529412 0.000000 0.0
1.541176 0.000000 0.0
1.552941 0.000000 0.0
1.564706 0.000000 0.0
1.576471 0.000000 0.0
1.588235 0.000000 0.0
1.600000 0.000000 0.0
1.611765 0.000000 0.0
1.623529 0.000000 0.0
1.635294 0.000000 0.0
1.647059 0.000000 0.0
1.658823 0.000000 0.0
1.670588 0.000000 0.0
1.682353 0.000000 0.0
1.694118 0.000000 0.0
1.705882 0.000000 0.0
1.717647 0.000000 0.0
1.729412 0.000000 0.0
1.741176 0.000000 0.0
1.752941 0.000000 0.0
1.764706 0.000000 0.0
1.776471 0.000000 0.0
1.788235 0.000000 0.0
1.800000 0.000000 0.0
1.811765 0.000000 0.0
1.823529 0.000000 0.0
1.835294 0.000000 0.0
1.847059 0.000000 0.0
1.858824 0.000000 0.0
1.870588 0.000000 0.0
1.882353 0.000000 0.0
1.894118 0.000000 0.0
1.905882 0.000000 0.0
1.917647 0.000000 0.0
1.929412 0.000000 0.0
1.941176 0.000000 0.0
1.952941 0.000000 0.0
1.964706 0.000000 0.0
1.976471 0.000000 0.0
1.988235 0.000000 0.0
2.000000 0.000000 0.0
2.011765 0.000000 0.0
2.023530 0.000000 0.0
2.035294 0.000000 0.0
2.047059 0.000000 0.0
2.058824 0.000000 0.0
2.070588 0.000000 0.0
2.082353 0.000000 0.0
2.094118 0.000000 0.0
2.105882 0.000000 0.0
2.117647 0.000000 0.0
2.129412 0.000000 0.0
2.141176 0.000000 0.0
2.152941 0.000000 0.0
2.164706 0.000000 0.0
2.176471 0.000000 0.0
2.188235 0.000000 0.0
2.200000 0.000000 0.0
2.211765 0.000000 0.0
2.223529 0.000000 0.0
2.235294 0.000000 0.0
2.247059 0.000000 0.0
2.258823 0.000000 0.0
2.270588 0.000000 0.0
2.282353 0.000000 0.0
2.294118 0.000000 0.0
2.305882 0.000000 0.0
2.317647 0.000000 0.0
2.329412 0.000000 0.0
2.341177 0.000000 0.0
2.352941 0.000000 0.0
2.364706 0.000000 0.0
2.376471 0.000000 0.0
2.388235 0.000000 0.0
2.400000 0.000000 0.0
2.411765 0.000000 0.0
2.423529 0.000000 0.0
2.435294 0.000000 0.0
2.447059 0.000000 0.0
2.458823 0.000000 0.0
2.470588 0.000000 0.0
2.482353 0.000000 0.0
2.494118 0.000000 0.0
2.505882 0.000000 0.0
2.517647 0.000000 0.0
2.529412 0.000000 0.0
2.541176 0.000000 0.0
2.552941 0.000000 0.0
2.564706 0.000000 0.0
2.576471 0.000000 0.0
2.588235 0.000000 0.0
2.600000 0.000000 0.0
2.611765 0.000000 0.0
2.623529 0.000000 0.0
2.635294 0.000000 0.0
2.647059 0.000000 0.0
2.658823 0.000000 0.0
2.670588 0.000000 0.0
2.682353 0.000000 0.0
2.694118 0.000000 0.0
2.705882 0.000000 0.0
2.717647 0.000000 0.0
2.729412 0.000000 0.0
2.741177 0.000000 0.0
2.752941 0.000000 0.0
2.764706 0.000000 0.0
2.776471 0.000000 0.0
2.788235 0.000000 0.0
2.800000 0.000000 0.0
2.811765 0.000000 0.0
2.823529 0.000000 0.0
2.835294 0.000000 0.0
2.847059 0.000000 0.0
2.858824 0.000000 0.0
2.870588 0.000000 0.0
2.882353 0.000000 0.0
2.894118 0.000000 0.0
2.905882 0.000000 0.0
2.917647 0.000000 0.0
2.929412 0.000000 0.0
2.941176 0.000000 0.0
2.952941 0.000000 0.0
2.964706 0.000000 0.0
2.976470 0.000000 0.0
2.988235 0.000000 0.0
3.000000 0.000000 0.0
1.494118 0.015873 0.0
1.505882 0.015873 0.0
1.517647 0.015873 0.0
1.529412 0.015873 0.0
1.541176 0.015873 0.0
1.552941 0.015873 0.0
1.564706 0.015873 0.0
1.576471 0.015873 0.0
1.588235 0.015873 0.0
1.600000 0.015873 0.0
1.611765 0.015873 0.0
1.623529 0.015873 0.0
1.635294 0.015873 0.0
1.647059 0.015873 0.0
1.658823 0.015873 0.0
1.670588 0.015873 0.0
1.682353 0.015873 0.0
1.694118 0.015873 0.0
1.705882 0.015873 0.0
1.717647 0.015873 0.0
1.729412 0.015873 0.0
1.741176 0.015873 0.0
1.752941 0.015873 0.0
1.764706 0.015873 0.0
1.776471 0.015873 0.0
1.788235 0.015873 0.0
1.800000 0.015873 0.0
1.811765 0.015873 0.0
1.823529 0.015873 0.0
1.835294 0.015873 0.0
1.847059 0.015873 0.0
1.858824 0.015873 0.0
1.870588 0.015873 0.0
1.882353 0.015873 0.0
1.894118 0.015873 0.0
1.905882 0.015873 0.0
1.917647 0.015873 0.0
1.929412 0.015873 0.0
1.941176 0.015873 0.0
1.952941 0.015873 0.0
1.964706 0.015873 0.0
1.976471 0.015873 0.0
1.988235 0.015873 0.0
2.000000 0.015873 0.0
2.011765 0.015873 0.0
2.023530 0.015873 0.0
2.035294 0.015873 0.0
2.047059 0.015873 0.0
2.058824 0.015873 0.0
2.070588 0.015873 0.0
2.082353 0.015873 0.0
2.094118 0.015873 0.0
2.105882 0.015873 0.0
2.117647 0.015873 0.0
2.129412 0.015873 0.0
2.141176 0.015873 0.0
2.152941 0.015873 0.0
2.164706 0.015873 0.0
2.176471 0.015873 0.0
2.188235 0.015873 0.0
2.200000 0.015873 0.0
2.211765 0.015873 0.0
2.223529 0.015873 0.0
2.235294 0.015873 0.0
2.247059 0.015873 0.0
2.258823 0.015873 0.0
2.270588 0.015873 0.0
2.282353 0.015873 0.0
2.294118 0.015873 0.0
2.305882 0.015873 0.0
2.317647 0.015873 0.0
2.329412 0.015873 0.0
2.341177 0.015873 0.0
2.352941 0.015873 0.0
2.364706 0.015873 0.0
2.376471 0.015873 0.0
2.388235 0.015873 0.0
2.400000 0.015873 0.0
2.411765 0.015873 0.0
2.423529 0.015873 0.0
2.435294 0.015873 0.0
2.447059 0.015873 0.0
2.458823 0.015873 0.0
2.470588 0.015873 0.0
2.482353 0.015873 0.0
2.494118 0.015873 0.0
2.505882 0.015873 0.0
2.517647 0.015873 0.0
2.529412 0.015873 0.0
2.541176 0.015873 0.0
2.552941 0.015873 0.0
2.564706 0.015873 0.0
2.576471 0.015873 0.0
2.588235 0.015873 0.0
2.600000 0.015873 0.0
2.611765 0.015873 0.0
2.623529 0.015873 0.0
2.635294 0.015873 0.0
2.647059 0.015873 0.0
2.658823 0.015873 0.0
2.670588 0.015873 0.0
2.682353 0.015873 0.0
2.694118 0.015873 0.0
2.705882 0.015873 0.0
2.717647 0.015873 0.0
2.729412 0.015873 0.0
2.741177 0.015873 0.0
2.752941 0.015873 0.0
2.764706 0.015873 0.0
2.776471 0.015873 0.0
2.788235 0.015873 0.0
2.800000 0.015873 0.0
2.811765 0.015873 0.0
2.823529 0.015873 0.0
2.835294 0.015873 0.0
2.847059 0.015873 0.0
2.858824 0.015873 0.0
2.870588 0.015873 0.0
2.882353 0.015873 0.0
2.894118 0.015873 0.0
2.905882 0.015873 0.0
2.917647 0.015873 0.0
2.929412 0.015873 0.0
2.941176 0.015873 0.0
2.952941 0.015873 0.0
2.964706 0.015873 0.0
2.976470 0.015873 0.0
2.988235 0.015873 0.0
3.000000 0.015873 0.0
1.494118 0.031746 0.0
1.505882 0.031746 0.0
1.517647 0.031746 0.0
1.529412 0.031746 0.0
1.541176 0.031746 0.0
1.552941 0.031746 0.0
1.564706 0.031746 0.0
1.576471 0.031746 0.0
1.588235 0.031746 0.0
1.600000 0.031746 0.0
1.611765 0.031746 0.0
1.623529 0.031746 0.0
1.635294 0.031746 0.0
1.647059 0.031746 0.0
1.658823 0.031746 0.0
1.670588 0.031746 0.0
1.682353 0.031746 0.0
1.694118 0.031746 0.0
1.705882 0.031746 0.0
1.717647 0.031746 0.0
1.729412 0.031746 0.0
1.741176 0.031746 0.0
1.752941 0.031746 0.0
1.764706 0.031746 0.0
1.776471 0.031746 0.0
1.788235 0.031746 0.0
1.800000 0.031746 0.0
1.811765 0.031746 0.0
1.823529 0.031746 0.0
1.835294 0.031746 0.0
1.847059 0.031746 0.0
1.858824 0.031746 0.0
1.870588 0.031746 0.0
1.882353 0.031746 0.0
1.894118 0.031746 0.0
1.905882 0.031746 0.0
1.917647 0.031746 0.0
1.929412 0.031746 0.0
1.941176 0.031746 0.0
1.952941 0.031746 0.0
1.964706 0.031746 0.0
1.976471 0.031746 0.0
1.988235 0.031746 0.0
2.000000 0.031746 0.0
2.011765 0.031746 0.0
2.023530 0.031746 0.0
2.035294 0.031746 0.0
2.047059 0.031746 0.0
2.058824 0.031746 0.0
2.070588 0.031746 0.0
2.082353 0.031746 0.0
2.094118 0.031746 0.0
2.105882 0.031746 0.0
2.117647 0.031746 0.0
2.129412 0.031746 0.0
2.141176 0.031746 0.0
2.152941 0.031746 0.0
2.164706 0.031746 0.0
2.176471 0.031746 0.0
2.188235 0.031746 0.0
2.200000 0.031746 0.0
2.211765 0.031746 0.0
2.223529 0.031746 0.0
2.235294 0.031746 0.0
2.247059 0.031746 0.0
2.258823 0.031746 0.0
2.270588 0.031746 0.0
2.282353 0.031746 0.0
2.294118 0.031746 0.0
2.305882 0.031746 0.0
2.317647 0.031746 0.0
2.329412 0.031746 0.0
2.341177 0.031746 0.0
2.352941 0.031746 0.0
2.364706 0.031746 0.0
2.376471 0.031746 0.0
2.388235 0.031746 0.0
2.400000 0.031746 0.0
2.411765 0.031746 0.0
2.423529 0.031746 0.0
2.435294 0.031746 0.0
2.447059 0.031746 0.0
2.458823 0.031746 0.0
2.470588 0.031746 0.0
2.482353 0.031746 0.0
2.494118 0.031746 0.0
2.505882 0.031746 0.0
2.517647 0.031746 0.0
2.529412 0.031746 0.0
2.541176 0.031746 0.0
2.552941 0.031746 0.0
2.564706 0.031746 0.0
2.576471 0.031746 0.0
2.588235 0.031746 0.0
2.600000 0.031746 0.0
2.611765 0.031746 0.0
2.623529 0.031746 0.0
2.635294 0.031746 0.0
2.647059 0.031746 0.0
2.658823 0.031746 0.0
2.670588 0.031746 0.0
2.682353 0.031746 0.0
2.694118 0.031746 0.0
2.705882 0.031746 0.0
2.717647 0.031746 0.0
2.729412 0.031746 0.0
2.741177 0.031746 0.0
2.752941 0.031746 0.0
2.764706 0.031746 0.0
2.776471 0.031746 0.0
2.788235 0.031746 0.0
2.800000 0.031746 0.0
2.811765 0.031746 0.0
2.823529 0.031746 0.0
2.835294 0.031746 0.0
2.847059 0.031746 0.0
2.858824 0.031746 0.0
2.870588 0.031746 0.0
2.882353 0.031746 0.0
2.894118 0.031746 0.0
2.905882 0.031746 0.0
2.917647 0.031746 0.0
2.929412 0.031746 0.0
2.941176 0.031746 0.0
2.952941 0.031746 0.0
2.964706 0.031746 0.0
2.976470 0.031746 0.0
2.988235 0.031746 0.0
3.000000 0.031746 0.0
1.494118 0.047619 0.0
1.505882 0.047619 0.0
1.517647 0.047619 0.0
1.529412 0.047619 0.0
1.541176 0.047619 0.0
1.552941 0.047619 0.0
1.564706 0.047619 0.0
1.576471 0.047619 0.0
1.588235 0.047619 0.0
1.600000 0.047619 0.0
1.611765 0.047619 0.0
1.623529 0.047619 0.0
1.635294 0.047619 0.0
1.647059 0.047619 0.0
1.658823 0.047619 0.0
1.670588 0.047619 0.0
1.682353 0.047619 0.0
1.694118 0.047619 0.0
1.705882 0.047619 0.0
1.717647 0.047619 0.0
1.729412 0.047619 0.0
1.741176 0.047619 0.0
1.752941 0.047619 0.0
1.764706 0.047619 0.0
1.776471 0.047619 0.0
1.788235 0.047619 0.0
1.800000 0.047619 0.0
1.811765 0.047619 0.0
1.823529 0.047619 0.0
1.835294 0.047619 0.0
1.847059 0.047619 0.0
1.858824 0.047619 0.0
1.870588 0.047619 0.0
1.882353 0.047619 0.0
1.894118 0.047619 0.0
1.905882 0.047619 0.0
1.917647 0.047619 0.0
1.929412 0.047619 0.0
1.941176 0.047619 0.0
1.952941 0.047619 0.0
1.964706 0.047619 0.0
1.976471 0.047619 0.0
1.988235 0.047619 0.0
2.000000 0.047619 0.0
2.011765 0.047619 0.0
2.023530 0.047619 0.0
2.035294 0.047619 0.0
2.047059 0.047619 0.0
2.058824 0.047619 0.0
2.070588 0.047619 0.0
2.082353 0.047619 0.0
2.094118 0.047619 0.0
2.105882 0.047619 0.0
2.117647 0.047619 0.0
2.129412 0.047619 0.0
2.141176 0.047619 0.0
2.152941 0.047619 0.0
2.164706 0.047619 0.0
2.176471 0.047619 0.0
2.188235 0.047619 0.0
2.200000 0.047619 0.0
2.211765 0.047619 0.0
2.223529 0.047619 0.0
2.235294 0.047619 0.0
[...]
POINT_DATA 5854
VECTORS attr0 float
0.000000 0.000000 0.0
0.000000 0.000000 0.0
0.000000 0.000000 0.0
0.000000 0.000000 0.0
0.000000 0.000000 0.0
0.000000 0.000000 0.0
0.000000 0.000000 0.0
0.000000 0.000000 0.0
0.000000 0.000000 0.0
0.000000 0.000000 0.0
0.000000 0.000000 0.0
0.000000 0.000000 0.0
0.000000 0.000000 0.0
0.000000 0.000000 0.0
0.000000 0.000000 0.0
0.000000 0.000000 0.0
0.000000 0.000000 0.0
0.000000 0.000000 0.0
0.000000 0.000000 0.0
0.000000 0.000000 0.0
0.000000 0.000000 0.0
0.000000 0.000000 0.0
0.000000 0.000000 0.0
0.000000 0.000000 0.0
0.000000 0.000000 0.0
0.000000 0.000000 0.0
0.000000 0.000000 0.0
0.000000 0.000000 0.0
0.000000 0.000000 0.0
0.000000 0.000000 0.0
0.000000 0.000000 0.0
0.000000 0.000000 0.0
0.000000 0.000000 0.0
0.000000 0.000000 0.0
0.000000 0.000000 0.0
0.000000 0.000000 0.0
0.000000 0.000000 0.0
0.000000 0.000000 0.0
0.000000 0.000000 0.0
0.000000 0.000000 0.0
0.000000 0.000000 0.0
0.000000 0.000000 0.0
0.000000 0.000000 0.0
0.000000 0.000000 0.0
0.000000 0.000000 0.0
0.000000 0.000000 0.0
0.000000 0.000000 0.0
0.000000 0.000000 0.0
0.000000 0.000000 0.0
0.000000 0.000000 0.0
0.000000 0.000000 0.0
0.000000 0.000000 0.0
0.000000 0.000000 0.0
0.000000 0.000000 0.0
0.000000 0.000000 0.0
0.000000 0.000000 0.0
0.000000 0.000000 0.0
0.000000 0.000000 0.0
0.000000 0.000000 0.0
0.000000 0.000000 0.0
0.000000 0.000000 0.0
0.000000 0.000000 0.0
0.000000 0.000000 0.0
0.000000 0.000000 0.0
0.000000 0.000000 0.0
0.000000 0.000000 0.0
0.000000 0.000000 0.0
0.000000 0.000000 0.0
0.000000 0.000000 0.0
0.000000 0.000000 0.0
0.000000 0.000000 0.0
0.000000 0.000000 0.0
0.000000 0.000000 0.0
0.000000 0.000000 0.0
0.000000 0.000000 0.0
0.000000 0.000000 0.0
0.000000 0.000000 0.0
0.000000 0.000000 0.0
0.000000 0.000000 0.0
0.000000 0.000000 0.0
0.000000 0.000000 0.0
0.000000 0.000000 0.0
0.000000 0.000000 0.0
0.000000 0.000000 0.0
0.000000 0.000000 0.0
0.000000 0.000000 0.0
0.000000 0.000000 0.0
0.000000 0.000000 0.0
0.000000 0.000000 0.0
0.000000 0.000000 0.0
0.000000 0.000000 0.0
0.000000 0.000000 0.0
0.000000 0.000000 0.0
0.000000 0.000000 0.0
0.000000 0.000000 0.0
0.000000 0.000000 0.0
0.000000 0.000000 0.0
0.000000 0.000000 0.0
0.000000 0.000000 0.0
0.000000 0.000000 0.0
0.000000 0.000000 0.0
0.000000 0.000000 0.0
0.000000 0.000000 0.0
0.000000 0.000000 0.0
0.000000 0.000000 0.0
0.000000 0.000000 0.0
0.000000 0.000000 0.0
0.000000 0.000000 0.0
0.000000 0.000000 0.0
0.000000 0.000000 0.0
0.000000 0.000000 0.0
0.000000 0.000000 0.0
0.000000 0.000000 0.0
0.000000 0.000000 0.0
0.000000 0.000000 0.0
0.000000 0.000000 0.0
0.000000 0.000000 0.0
0.000000 0.000000 0.0
0.000000 0.000000 0.0
0.000000 0.000000 0.0
0.000000 0.000000 0.0
0.000000 0.000000 0.0
0.000000 0.000000 0.0
0.000000 0.000000 0.0
0.000000 0.000000 0.0
0.000000 0.000000 0.0
0.000000 0.000000 0.0
0.000000 0.000000 0.0
0.000000 1.000000 0.0
0.000000 0.000000 0.0
-0.000206 0.000001 0.0
-0.000206 0.000001 0.0
-0.000206 0.000000 0.0
-0.000205 -0.000000 0.0
-0.000203 -0.000001 0.0
-0.000200 -0.000002 0.0
-0.000197 -0.000002 0.0
-0.000192 -0.000003 0.0
-0.000186 -0.000004 0.0
-0.000179 -0.000005 0.0
-0.000171 -0.000005 0.0
-0.000161 -0.000006 0.0
-0.000150 -0.000008 0.0
-0.000137 -0.000009 0.0
-0.000122 -0.000010 0.0
-0.000105 -0.000011 0.0
-0.000086 -0.000013 0.0
-0.000065 -0.000014 0.0
-0.000041 -0.000016 0.0
-0.000015 -0.000018 0.0
0.000014 -0.000020 0.0
0.000046 -0.000022 0.0
0.000081 -0.000024 0.0
0.000119 -0.000027 0.0
0.000161 -0.000029 0.0
0.000207 -0.000032 0.0
0.000257 -0.000035 0.0
0.000312 -0.000038 0.0
0.000371 -0.000041 0.0
0.000435 -0.000045 0.0
0.000504 -0.000048 0.0
0.000578 -0.000052 0.0
0.000659 -0.000056 0.0
0.000746 -0.000061 0.0
0.000839 -0.000065 0.0
0.000939 -0.000070 0.0
0.001047 -0.000075 0.0
0.001162 -0.000081 0.0
0.001285 -0.000087 0.0
0.001418 -0.000093 0.0
0.001559 -0.000099 0.0
0.001709 -0.000106 0.0
0.001870 -0.000113 0.0
0.002041 -0.000121 0.0
0.002224 -0.000129 0.0
0.002418 -0.000137 0.0
0.002624 -0.000145 0.0
0.002843 -0.000155 0.0
0.003075 -0.000164 0.0
0.003322 -0.000174 0.0
0.003583 -0.000185 0.0
0.003860 -0.000196 0.0
0.004152 -0.000207 0.0
0.004462 -0.000219 0.0
0.004789 -0.000232 0.0
0.005135 -0.000245 0.0
0.005499 -0.000259 0.0
0.005884 -0.000273 0.0
0.006289 -0.000288 0.0
0.006716 -0.000303 0.0
0.007166 -0.000319 0.0
0.007639 -0.000336 0.0
0.008136 -0.000354 0.0
0.008659 -0.000372 0.0
0.009208 -0.000391 0.0
0.009784 -0.000410 0.0
0.010389 -0.000431 0.0
0.011023 -0.000452 0.0
0.011687 -0.000474 0.0
0.012384 -0.000497 0.0
0.013112 -0.000520 0.0
0.013875 -0.000545 0.0
0.014673 -0.000570 0.0
0.015507 -0.000597 0.0
0.016379 -0.000624 0.0
0.017290 -0.000653 0.0
0.018242 -0.000682 0.0
0.019235 -0.000713 0.0
0.020272 -0.000744 0.0
0.021353 -0.000777 0.0
0.022481 -0.000811 0.0
0.023658 -0.000847 0.0
0.024885 -0.000884 0.0
0.026164 -0.000923 0.0
0.027497 -0.000963 0.0
0.028887 -0.001005 0.0
0.030336 -0.001049 0.0
0.031846 -0.001096 0.0
0.033421 -0.001144 0.0
0.035064 -0.001195 0.0
0.036778 -0.001250 0.0
0.038568 -0.001307 0.0
0.040437 -0.001368 0.0
0.042390 -0.001434 0.0
0.044433 -0.001503 0.0
0.046572 -0.001579 0.0
0.048814 -0.001660 0.0
0.051168 -0.001748 0.0
0.053641 -0.001845 0.0
0.056245 -0.001951 0.0
0.058993 -0.002067 0.0
0.061897 -0.002197 0.0
0.064974 -0.002342 0.0
0.068244 -0.002504 0.0
0.071730 -0.002688 0.0
0.075457 -0.002897 0.0
0.079457 -0.003137 0.0
0.083769 -0.003415 0.0
0.088437 -0.003739 0.0
0.093516 -0.004120 0.0
0.099074 -0.004573 0.0
0.105191 -0.005116 0.0
0.111967 -0.005777 0.0
0.119530 -0.006592 0.0
0.128034 -0.007610 0.0
0.137677 -0.008906 0.0
0.148708 -0.010588 0.0
0.161437 -0.012816 0.0
0.176246 -0.015834 0.0
0.193581 -0.020004 0.0
0.213890 -0.025835 0.0
0.237437 -0.033925 0.0
0.263783 -0.044526 0.0
0.290495 -0.055792 0.0
0.310154 -0.057702 0.0
0.303868 -0.012494 0.0
0.228825 0.206292 0.0
0.000000 1.000000 0.0
0.000000 0.000000 0.0
-0.000379 0.000002 0.0
-0.000378 -0.000000 0.0
-0.000376 -0.000002 0.0
-0.000372 -0.000004 0.0
-0.000367 -0.000006 0.0
-0.000360 -0.000009 0.0
-0.000351 -0.000011 0.0
-0.000340 -0.000014 0.0
-0.000327 -0.000017 0.0
-0.000311 -0.000021 0.0
-0.000292 -0.000025 0.0
-0.000271 -0.000029 0.0
-0.000247 -0.000033 0.0
-0.000219 -0.000038 0.0
-0.000187 -0.000043 0.0
-0.000152 -0.000048 0.0
-0.000113 -0.000054 0.0
-0.000069 -0.000060 0.0
-0.000020 -0.000067 0.0
0.000034 -0.000074 0.0
0.000094 -0.000082 0.0
0.000159 -0.000090 0.0
0.000230 -0.000099 0.0
0.000309 -0.000109 0.0
0.000394 -0.000119 0.0
0.000487 -0.000129 0.0
0.000588 -0.000141 0.0
0.000698 -0.000153 0.0
0.000817 -0.000166 0.0
0.000945 -0.000180 0.0
0.001084 -0.000194 0.0
0.001233 -0.000209 0.0
0.001394 -0.000226 0.0
0.001567 -0.000243 0.0
0.001753 -0.000261 0.0
0.001953 -0.000280 0.0
0.002166 -0.000301 0.0
0.002395 -0.000322 0.0
0.002640 -0.000345 0.0
0.002902 -0.000369 0.0
0.003181 -0.000394 0.0
0.003479 -0.000420 0.0
0.003796 -0.000448 0.0
0.004134 -0.000477 0.0
0.004494 -0.000508 0.0
0.004876 -0.000540 0.0
0.005281 -0.000574 0.0
0.005712 -0.000609 0.0
0.006168 -0.000646 0.0
0.006652 -0.000685 0.0
0.007164 -0.000726 0.0
0.007706 -0.000768 0.0
0.008279 -0.000813 0.0
0.008884 -0.000859 0.0
0.009523 -0.000908 0.0
0.010198 -0.000958 0.0
0.010909 -0.001011 0.0
0.011659 -0.001066 0.0
0.012449 -0.001123 0.0
0.013280 -0.001183 0.0
0.014154 -0.001245 0.0
0.015073 -0.001309 0.0
0.016039 -0.001376 0.0
0.017053 -0.001446 0.0
0.018117 -0.001518 0.0
0.019234 -0.001593 0.0
0.020404 -0.001671 0.0
0.021630 -0.001752 0.0
0.022914 -0.001836 0.0
0.024258 -0.001923 0.0
0.025664 -0.002012 0.0
0.027135 -0.002106 0.0
0.028671 -0.002202 0.0
0.030277 -0.002302 0.0
0.031953 -0.002406 0.0
0.033703 -0.002513 0.0
0.035529 -0.002624 0.0
0.037433 -0.002739 0.0
0.039418 -0.002858 0.0
0.041487 -0.002981 0.0
0.043643 -0.003110 0.0
0.045889 -0.003243 0.0
0.048228 -0.003381 0.0
0.050664 -0.003524 0.0
0.053199 -0.003674 0.0
0.055839 -0.003830 0.0
0.058586 -0.003993 0.0
0.061446 -0.004163 0.0
0.064424 -0.004342 0.0
0.067524 -0.004529 0.0
0.070752 -0.004727 0.0
0.074116 -0.004936 0.0
0.077621 -0.005157 0.0
0.081276 -0.005392 0.0
0.085089 -0.005643 0.0
0.089071 -0.005911 0.0
0.093232 -0.006200 0.0
0.097584 -0.006512 0.0
0.102143 -0.006851 0.0
0.106924 -0.007220 0.0
0.111945 -0.007625 0.0
0.117227 -0.008070 0.0
0.122795 -0.008564 0.0
0.128676 -0.009114 0.0
0.134903 -0.009731 0.0
0.141511 -0.010426 0.0
0.148545 -0.011215 0.0
0.156053 -0.012116 0.0
0.164094 -0.013152 0.0
0.172733 -0.014351 0.0
0.182048 -0.015751 0.0
0.192127 -0.017396 0.0
0.203072 -0.019346 0.0
0.214993 -0.021677 0.0
0.228013 -0.024485 0.0
0.242251 -0.027893 0.0
0.257810 -0.032057 0.0
0.274735 -0.037155 0.0
0.292932 -0.043369 0.0
0.312021 -0.050789 0.0
0.331044 -0.059171 0.0
0.347937 -0.067315 0.0
0.358630 -0.071587 0.0
0.355676 -0.062564 0.0
0.326752 -0.018043 0.0
0.255226 0.109729 0.0
0.131132 0.409981 0.0
0.000000 1.000000 0.0
0.000000 0.000000 0.0
-0.000520 0.000000 0.0
-0.000517 -0.000004 0.0
-0.000512 -0.000008 0.0
-0.000504 -0.000012 0.0
-0.000494 -0.000018 0.0
-0.000482 -0.000023 0.0
-0.000466 -0.000029 0.0
-0.000448 -0.000036 0.0
-0.000426 -0.000043 0.0
-0.000400 -0.000051 0.0
-0.000370 -0.000059 0.0
-0.000336 -0.000068 0.0
-0.000297 -0.000078 0.0
-0.000253 -0.000089 0.0
-0.000204 -0.000100 0.0
-0.000149 -0.000112 0.0
-0.000088 -0.000125 0.0
-0.000020 -0.000140 0.0
0.000055 -0.000155 0.0
0.000138 -0.000171 0.0
0.000228 -0.000188 0.0
0.000328 -0.000207 0.0
0.000437 -0.000226 0.0
0.000555 -0.000247 0.0
0.000685 -0.000270 0.0
0.000825 -0.000294 0.0
0.000977 -0.000319 0.0
0.001142 -0.000346 0.0
0.001320 -0.000375 0.0
0.001513 -0.000405 0.0
0.001720 -0.000437 0.0
0.001943 -0.000471 0.0
0.002184 -0.000507 0.0
0.002442 -0.000545 0.0
0.002718 -0.000585 0.0
0.003015 -0.000628 0.0
0.003332 -0.000673 0.0
0.003672 -0.000720 0.0
0.004035 -0.000770 0.0
0.004422 -0.000823 0.0
0.004835 -0.000878 0.0
0.005275 -0.000936 0.0
0.005743 -0.000997 0.0
0.006241 -0.001061 0.0
0.006770 -0.001129 0.0
0.007332 -0.001199 0.0
0.007928 -0.001274 0.0
0.008561 -0.001351 0.0
0.009231 -0.001433 0.0
0.009940 -0.001518 0.0
0.010691 -0.001607 0.0
0.011484 -0.001700 0.0
0.012322 -0.001797 0.0
0.013207 -0.001899 0.0
0.014141 -0.002004 0.0
0.015126 -0.002115 0.0
0.016163 -0.002230 0.0
0.017256 -0.002350 0.0
0.018406 -0.002474 0.0
0.019615 -0.002604 0.0
0.020886 -0.002739 0.0
0.022222 -0.002879 0.0
0.023624 -0.003025 0.0
0.025095 -0.003176 0.0
0.026637 -0.003333 0.0
0.028254 -0.003496 0.0
0.029948 -0.003664 0.0
0.031721 -0.003839 0.0
0.033577 -0.004020 0.0
0.035517 -0.004207 0.0
0.037546 -0.004401 0.0
0.039665 -0.004602 0.0
0.041877 -0.004810 0.0
0.044187 -0.005025 0.0
0.046596 -0.005247 0.0
0.049109 -0.005477 0.0
0.051728 -0.005714 0.0
0.054456 -0.005960 0.0
0.057297 -0.006215 0.0
0.060256 -0.006478 0.0
0.063334 -0.006751 0.0
0.066537 -0.007033 0.0
0.069869 -0.007326 0.0
0.073332 -0.007629 0.0
0.076933 -0.007945 0.0
0.080676 -0.008273 0.0
0.084565 -0.008615 0.0
0.088606 -0.008971 0.0
0.092805 -0.009344 0.0
0.097168 -0.009734 0.0
0.101702 -0.010143 0.0
0.106414 -0.010574 0.0
0.111312 -0.011029 0.0
0.116404 -0.011510 0.0
0.121701 -0.012021 0.0
0.127214 -0.012565 0.0
0.132953 -0.013147 0.0
0.138932 -0.013772 0.0
0.145166 -0.014446 0.0
0.151671 -0.015175 0.0
0.158466 -0.015969 0.0
0.165571 -0.016836 0.0
0.173009 -0.017789 0.0
0.180804 -0.018840 0.0
0.188986 -0.020005 0.0
0.197585 -0.021303 0.0
0.206634 -0.022757 0.0
0.216171 -0.024393 0.0
0.226233 -0.026243 0.0
0.236859 -0.028344 0.0
0.248086 -0.030740 0.0
0.259947 -0.033482 0.0
0.272459 -0.036628 0.0
0.285616 -0.040242 0.0
0.299370 -0.044387 0.0
0.313598 -0.049109 0.0
0.328049 -0.054415 0.0
0.342266 -0.060203 0.0
0.355456 -0.066142 0.0
0.366285 -0.071425 0.0
0.372588 -0.074293 0.0
0.370989 -0.071144 0.0
0.356519 -0.054967 0.0
0.322594 -0.012782 0.0
0.262283 0.077825 0.0
0.173037 0.251438 0.0
0.068537 0.550645 0.0
0.000000 1.000000 0.0
0.000000 0.000000 0.0
-0.000633 -0.000004 0.0
-0.000626 -0.000011 0.0
-0.000617 -0.000019 0.0
-0.000605 -0.000027 0.0
-0.000589 -0.000037 0.0
-0.000570 -0.000046 0.0
-0.000547 -0.000057 0.0
-0.000520 -0.000069 0.0
-0.000488 -0.000082 0.0
-0.000451 -0.000096 0.0
-0.000409 -0.000111 0.0
-0.000361 -0.000127 0.0
-0.000307 -0.000144 0.0
-0.000247 -0.000163 0.0
-0.000179 -0.000183 0.0
-0.000104 -0.000205 0.0
-0.000020 -0.000228 0.0
0.000072 -0.000253 0.0
0.000174 -0.000280 0.0
0.000286 -0.000308 0.0
0.000408 -0.000339 0.0
0.000542 -0.000371 0.0
0.000688 -0.000406 0.0
0.000847 -0.000443 0.0
0.001020 -0.000482 0.0
0.001207 -0.000524 0.0
0.001409 -0.000569 0.0
0.001629 -0.000616 0.0
0.001865 -0.000666 0.0
0.002120 -0.000719 0.0
0.002395 -0.000775 0.0
0.002690 -0.000835 0.0
0.003007 -0.000898 0.0
0.003347 -0.000964 0.0
0.003712 -0.001035 0.0
0.004102 -0.001109 0.0
0.004519 -0.001187 0.0
0.004965 -0.001270 0.0
0.005441 -0.001356 0.0
0.005948 -0.001448 0.0
0.006488 -0.001544 0.0
0.007063 -0.001645 0.0
0.007675 -0.001752 0.0
0.008325 -0.001863 0.0
0.009016 -0.001980 0.0
0.009748 -0.002103 0.0
0.010525 -0.002232 0.0
0.011348 -0.002366 0.0
0.012219 -0.002507 0.0
0.013140 -0.002655 0.0
0.014115 -0.002809 0.0
0.015144 -0.002970 0.0
0.016230 -0.003138 0.0
0.017377 -0.003313 0.0
0.018585 -0.003496 0.0
0.019859 -0.003686 0.0
0.021199 -0.003885 0.0
0.022610 -0.004091 0.0
0.024094 -0.004306 0.0
0.025654 -0.004530 0.0
0.027292 -0.004762 0.0
0.029011 -0.005003 0.0
0.030815 -0.005253 0.0
0.032706 -0.005512 0.0
0.034688 -0.005781 0.0
0.036763 -0.006060 0.0
0.038936 -0.006349 0.0
0.041208 -0.006648 0.0
0.043584 -0.006957 0.0
0.046066 -0.007277 0.0
0.048659 -0.007608 0.0
0.051365 -0.007950 0.0
0.054188 -0.008304 0.0
0.057132 -0.008669 0.0
0.060200 -0.009046 0.0
0.063396 -0.009436 0.0
0.066724 -0.009838 0.0
0.070187 -0.010254 0.0
0.073789 -0.010683 0.0
0.077535 -0.011126 0.0
0.081428 -0.011585 0.0
0.085473 -0.012059 0.0
0.089673 -0.012549 0.0
0.094034 -0.013056 0.0
0.098560 -0.013582 0.0
0.103256 -0.014127 0.0
0.108126 -0.014693 0.0
0.113177 -0.015281 0.0
0.118413 -0.015894 0.0
0.123841 -0.016533 0.0
0.129467 -0.017201 0.0
0.135298 -0.017901 0.0
0.141340 -0.018636 0.0
0.147602 -0.019410 0.0
0.154092 -0.020227 0.0
0.160818 -0.021092 0.0
0.167791 -0.022011 0.0
0.175020 -0.022991 0.0
0.182516 -0.024039 0.0
0.190292 -0.025165 0.0
0.198360 -0.026378 0.0
0.206732 -0.027691 0.0
0.215423 -0.029117 0.0
0.224445 -0.030671 0.0
0.233811 -0.032371 0.0
0.243533 -0.034237 0.0
0.253619 -0.036291 0.0
0.264073 -0.038558 0.0
0.274891 -0.041064 0.0
0.286057 -0.043836 0.0
0.297537 -0.046901 0.0
0.309270 -0.050279 0.0
0.321151 -0.053980 0.0
0.333015 -0.057986 0.0
0.344607 -0.062237 0.0
0.355536 -0.066586 0.0
0.365221 -0.070737 0.0
0.372801 -0.074134 0.0
0.377033 -0.075775 0.0
0.376157 -0.073903 0.0
0.367771 -0.065517 0.0
0.348797 -0.045636 0.0
0.315688 -0.006292 0.0
0.265262 0.064580 0.0
0.196712 0.183740 0.0
0.115471 0.371131 0.0
0.038842 0.643444 0.0
0.000000 1.000000 0.0
0.000000 0.000000 0.0
-0.000719 -0.000014 0.0
-0.000709 -0.000025 0.0
-0.000694 -0.000037 0.0
-0.000677 -0.000050 0.0
-0.000655 -0.000064 0.0
-0.000628 -0.000080 0.0
-0.000597 -0.000097 0.0
-0.000560 -0.000115 0.0
-0.000518 -0.000135 0.0
-0.000470 -0.000157 0.0
-0.000415 -0.000180 0.0
-0.000353 -0.000206 0.0
-0.000283 -0.000233 0.0
-0.000205 -0.000262 0.0
-0.000119 -0.000293 0.0
-0.000023 -0.000327 0.0
0.000083 -0.000363 0.0
0.000200 -0.000401 0.0
0.000328 -0.000443 0.0
0.000469 -0.000487 0.0
0.000623 -0.000534 0.0
0.000790 -0.000584 0.0
0.000973 -0.000638 0.0
0.001171 -0.000695 0.0
0.001386 -0.000755 0.0
0.001619 -0.000820 0.0
0.001871 -0.000888 0.0
0.002143 -0.000961 0.0
0.002435 -0.001038 0.0
0.002751 -0.001119 0.0
0.003090 -0.001206 0.0
0.003454 -0.001297 0.0
0.003845 -0.001394 0.0
0.004263 -0.001496 0.0
0.004712 -0.001604 0.0
0.005191 -0.001717 0.0
0.005703 -0.001837 0.0
0.006249 -0.001963 0.0
0.006832 -0.002096 0.0
0.007452 -0.002236 0.0
0.008113 -0.002383 0.0
0.008816 -0.002538 0.0
0.009562 -0.002700 0.0
0.010355 -0.002870 0.0
0.011196 -0.003049 0.0
0.012088 -0.003236 0.0
0.013033 -0.003432 0.0
0.014033 -0.003637 0.0
0.015092 -0.003851 0.0
0.016210 -0.004075 0.0
0.017392 -0.004310 0.0
0.018639 -0.004554 0.0
0.019955 -0.004810 0.0
0.021343 -0.005076 0.0
0.022805 -0.005353 0.0
0.024344 -0.005642 0.0
0.025963 -0.005943 0.0
0.027666 -0.006255 0.0
0.029455 -0.006580 0.0
0.031335 -0.006918 0.0
0.033307 -0.007269 0.0
0.035376 -0.007633 0.0
0.037545 -0.008010 0.0
0.039818 -0.008402 0.0
0.042197 -0.008807 0.0
0.044687 -0.009227 0.0
0.047291 -0.009661 0.0
0.050013 -0.010110 0.0
0.052856 -0.010575 0.0
0.055824 -0.011055 0.0
0.058921 -0.011551 0.0
0.062151 -0.012062 0.0
0.065517 -0.012591 0.0
0.069023 -0.013136 0.0
0.072674 -0.013698 0.0
0.076472 -0.014278 0.0
0.080423 -0.014876 0.0
0.084529 -0.015493 0.0
0.088796 -0.016129 0.0
0.093226 -0.016784 0.0
0.097823 -0.017460 0.0
0.102593 -0.018157 0.0
0.107539 -0.018877 0.0
0.112664 -0.019620 0.0
0.117974 -0.020387 0.0
0.123472 -0.021180 0.0
0.129163 -0.022001 0.0
0.135052 -0.022851 0.0
0.141141 -0.023733 0.0
0.147437 -0.024648 0.0
0.153943 -0.025601 0.0
0.160665 -0.026593 0.0
0.167607 -0.027630 0.0
0.174774 -0.028714 0.0
0.182170 -0.029852 0.0
0.189801 -0.031047 0.0
0.197670 -0.032308 0.0
0.205783 -0.033640 0.0
0.214143 -0.035051 0.0
0.222754 -0.036552 0.0
0.231616 -0.038150 0.0
0.240731 -0.039858 0.0
0.250096 -0.041687 0.0
0.259706 -0.043649 0.0
0.269550 -0.045759 0.0
0.279612 -0.048028 0.0
0.289865 -0.050470 0.0
0.300270 -0.053094 0.0
0.310771 -0.055905 0.0
0.321285 -0.058899 0.0
0.331698 -0.062059 0.0
0.341851 -0.065341 0.0
0.351519 -0.068666 0.0
0.360395 -0.071889 0.0
0.368056 -0.074772 0.0
0.373928 -0.076922 0.0
0.377238 -0.077709 0.0
0.376964 -0.076140 0.0
0.371787 -0.070669 0.0
0.360066 -0.058929 0.0
0.339885 -0.037379 0.0
0.309252 -0.000873 0.0
0.266573 0.057739 0.0
0.211580 0.147741 0.0
0.146854 0.279924 0.0
0.079829 0.464437 0.0
0.024414 0.706438 0.0
0.000000 1.000000 0.0
0.000000 0.000000 0.0
-0.000782 -0.000029 0.0
-0.000766 -0.000045 0.0
-0.000747 -0.000062 0.0
-0.000723 -0.000081 0.0
-0.000694 -0.000102 0.0
-0.000660 -0.000124 0.0
-0.000620 -0.000149 0.0
-0.000573 -0.000175 0.0
-0.000520 -0.000204 0.0
-0.000460 -0.000235 0.0
-0.000392 -0.000268 0.0
-0.000316 -0.000305 0.0
-0.000231 -0.000343 0.0
-0.000136 -0.000385 0.0
-0.000030 -0.000430 0.0
0.000086 -0.000478 0.0
0.000214 -0.000529 0.0
0.000355 -0.000584 0.0
0.000510 -0.000643 0.0
0.000679 -0.000706 0.0
0.000863 -0.000772 0.0
0.001063 -0.000844 0.0
0.001281 -0.000920 0.0
0.001517 -0.001001 0.0
0.001773 -0.001087 0.0
0.002049 -0.001178 0.0
0.002348 -0.001275 0.0
0.002670 -0.001378 0.0
0.003016 -0.001487 0.0
0.003389 -0.001602 0.0
0.003789 -0.001724 0.0
0.004218 -0.001853 0.0
0.004679 -0.001990 0.0
0.005171 -0.002134 0.0
0.005698 -0.002286 0.0
0.006260 -0.002446 0.0
0.006861 -0.002615 0.0
0.007501 -0.002793 0.0
0.008184 -0.002980 0.0
0.008910 -0.003177 0.0
0.009682 -0.003384 0.0
0.010503 -0.003601 0.0
0.011375 -0.003829 0.0
0.012300 -0.004068 0.0
0.013280 -0.004318 0.0
0.014319 -0.004581 0.0
0.015419 -0.004856 0.0
0.016582 -0.005143 0.0
0.017812 -0.005444 0.0
0.019111 -0.005758 0.0
0.020482 -0.006086 0.0
0.021929 -0.006428 0.0
0.023454 -0.006785 0.0
0.025061 -0.007157 0.0
0.026753 -0.007545 0.0
0.028533 -0.007948 0.0
0.030405 -0.008367 0.0
0.032371 -0.008803 0.0
0.034437 -0.009256 0.0
0.036604 -0.009727 0.0
0.038878 -0.010215 0.0
0.041260 -0.010721 0.0
0.043756 -0.011245 0.0
0.046370 -0.011789 0.0
0.049103 -0.012351 0.0
0.051962 -0.012933 0.0
0.054949 -0.013534 0.0
0.058069 -0.014156 0.0
0.061325 -0.014798 0.0
0.064721 -0.015460 0.0
0.068261 -0.016144 0.0
0.071950 -0.016849 0.0
0.075790 -0.017576 0.0
0.079786 -0.018325 0.0
0.083943 -0.019097 0.0
0.088262 -0.019891 0.0
0.092749 -0.020709 0.0
0.097407 -0.021550 0.0
0.102240 -0.022416 0.0
0.107251 -0.023307 0.0
0.112445 -0.024223 0.0
0.117823 -0.025166 0.0
0.123391 -0.026137 0.0
0.129150 -0.027136 0.0
0.135105 -0.028164 0.0
0.141257 -0.029224 0.0
0.147611 -0.030315 0.0
0.154168 -0.031442 0.0
0.160932 -0.032604 0.0
0.167903 -0.033806 0.0
0.175084 -0.035049 0.0
0.182477 -0.036336 0.0
0.190082 -0.037671 0.0
0.197900 -0.039058 0.0
0.205931 -0.040501 0.0